[Molden Format]
made by pyscf v[2.13.0]
[Atoms] (AU)
N   1   7     0.00000000000000     0.00000000000000     0.00000000000000
N   2   7     0.00000000000000     0.00000000000000     2.07491928477244
[GTO]
1 0
 s    8 1.00
                  9046  0.00069961741342552
                  1357  0.0053860546299287
                 309.3   0.027391021189057
                 87.73    0.10315059198201
                 28.56    0.27857066331743
                 10.21    0.44829484945412
                 3.838    0.27808592839527
                0.7466   0.015431561233271
 s    8 1.00
                  9046  -0.00030499009595337
                  1357  -0.0024080263785077
                 309.3   -0.01194444872518
                 87.73  -0.048925992909017
                 28.56   -0.13447272472496
                 10.21   -0.31511257770011
                 3.838   -0.24285783254964
                0.7466     1.0943822068542
 s    1 1.00
                0.2248                   1
 p    3 1.00
                 13.55   0.058905676772132
                 2.917    0.32046110671427
                0.7973    0.75304206179207
 p    1 1.00
                0.2185                   1
 d    1 1.00
                 0.817                   1

2 0
 s    8 1.00
                  9046  0.00069961741342552
                  1357  0.0053860546299287
                 309.3   0.027391021189057
                 87.73    0.10315059198201
                 28.56    0.27857066331743
                 10.21    0.44829484945412
                 3.838    0.27808592839527
                0.7466   0.015431561233271
 s    8 1.00
                  9046  -0.00030499009595337
                  1357  -0.0024080263785077
                 309.3   -0.01194444872518
                 87.73  -0.048925992909017
                 28.56   -0.13447272472496
                 10.21   -0.31511257770011
                 3.838   -0.24285783254964
                0.7466     1.0943822068542
 s    1 1.00
                0.2248                   1
 p    3 1.00
                 13.55   0.058905676772132
                 2.917    0.32046110671427
                0.7973    0.75304206179207
 p    1 1.00
                0.2185                   1
 d    1 1.00
                 0.817                   1

[5d]
[7f]
[9g]

[MO]
 Sym= A1g
 Ene=    -15.68653447
 Spin= Alpha
 Occup=    2.00000
   1      0.70729671193902
   2    0.00038224160879937
   3    -0.0016030746123303
   4                     0
   5                     0
   6    0.0013726188114721
   7                     0
   8                     0
   9    -0.00058002915072557
  10    0.00040128567591518
  11                     0
  12                     0
  13                     0
  14                     0
  15      0.70729671193902
  16    0.00038224160879937
  17    -0.0016030746123303
  18                     0
  19                     0
  20    -0.0013726188114721
  21                     0
  22                     0
  23    0.00058002915072557
  24    0.00040128567591518
  25                     0
  26                     0
  27                     0
  28                     0
 Sym= A1u
 Ene=      -15.683138
 Spin= Alpha
 Occup=    2.00000
   1       0.7083896869483
   2    0.0016625990373866
   3    -0.0045991098139488
   4                     0
   5                     0
   6    0.0023627943211204
   7                     0
   8                     0
   9    -0.0013849837709686
  10    0.0012093921451789
  11                     0
  12                     0
  13                     0
  14                     0
  15      -0.7083896869483
  16    -0.0016625990373866
  17    0.0045991098139488
  18                     0
  19                     0
  20    0.0023627943211204
  21                     0
  22                     0
  23    -0.0013849837709686
  24    -0.0012093921451789
  25                     0
  26                     0
  27                     0
  28                     0
 Sym= A1g
 Ene=    -1.470972315
 Spin= Alpha
 Occup=    2.00000
   1    -0.0086416932192171
   2      0.33408631816921
   3      0.19414125010822
   4                     0
   5                     0
   6      0.21774896404342
   7                     0
   8                     0
   9     0.036273596778531
  10     0.028538201303283
  11                     0
  12                     0
  13                     0
  14                     0
  15    -0.0086416932192171
  16      0.33408631816921
  17      0.19414125010822
  18                     0
  19                     0
  20     -0.21774896404342
  21                     0
  22                     0
  23    -0.036273596778531
  24     0.028538201303283
  25                     0
  26                     0
  27                     0
  28                     0
 Sym= A1u
 Ene=   -0.7742009556
 Spin= Alpha
 Occup=    2.00000
   1    0.0034752547717531
   2      0.32748573758345
   3      0.42192067760293
   4                    -0
   5                    -0
   6     -0.21587897279129
   7                    -0
   8                    -0
   9     -0.11410452356005
  10     -0.01341512921883
  11                    -0
  12                    -0
  13                    -0
  14                    -0
  15    -0.0034752547717531
  16     -0.32748573758345
  17     -0.42192067760293
  18                    -0
  19                    -0
  20     -0.21587897279129
  21                    -0
  22                    -0
  23     -0.11410452356005
  24      0.01341512921883
  25                    -0
  26                    -0
  27                    -0
  28                    -0
 Sym= A1g
 Ene=   -0.6261998701
 Spin= Alpha
 Occup=    2.00000
   1     0.011443630931696
   2    -0.096115594692689
   3     -0.33057399623753
   4                     0
   5                     0
   6      0.45426622843722
   7                     0
   8                     0
   9      0.21331674170275
  10     0.024980622572064
  11                     0
  12                     0
  13                     0
  14                     0
  15     0.011443630931696
  16    -0.096115594692689
  17     -0.33057399623753
  18                     0
  19                     0
  20     -0.45426622843722
  21                     0
  22                     0
  23     -0.21331674170275
  24     0.024980622572064
  25                     0
  26                     0
  27                     0
  28                     0
 Sym= E1uy
 Ene=   -0.6080235621
 Spin= Alpha
 Occup=    2.00000
   1                    -0
   2                    -0
   3                    -0
   4                    -0
   5       0.4264123769718
   6                    -0
   7                    -0
   8       0.2569888063779
   9                    -0
  10                    -0
  11                    -0
  12     0.047530930520546
  13                    -0
  14                    -0
  15                    -0
  16                    -0
  17                    -0
  18                    -0
  19       0.4264123769718
  20                    -0
  21                    -0
  22       0.2569888063779
  23                    -0
  24                    -0
  25                    -0
  26    -0.047530930520546
  27                    -0
  28                    -0
 Sym= E1ux
 Ene=   -0.6080235621
 Spin= Alpha
 Occup=    2.00000
   1                    -0
   2                    -0
   3                    -0
   4       0.4264123769718
   5                    -0
   6                    -0
   7       0.2569888063779
   8                    -0
   9                    -0
  10                    -0
  11     0.047530930520546
  12                    -0
  13                    -0
  14                    -0
  15                    -0
  16                    -0
  17                    -0
  18       0.4264123769718
  19                    -0
  20                    -0
  21       0.2569888063779
  22                    -0
  23                    -0
  24                    -0
  25    -0.047530930520546
  26                    -0
  27                    -0
  28                    -0
 Sym= E1gx
 Ene=    0.1754881016
 Spin= Alpha
 Occup=    0.00000
   1                     0
   2                     0
   3                     0
   4      0.42778831022313
   5                     0
   6                     0
   7       0.6771621376759
   8                     0
   9                     0
  10                     0
  11    -0.012970905005626
  12                     0
  13                     0
  14                     0
  15                     0
  16                     0
  17                     0
  18     -0.42778831022313
  19                     0
  20                     0
  21      -0.6771621376759
  22                     0
  23                     0
  24                     0
  25    -0.012970905005626
  26                     0
  27                     0
  28                     0
 Sym= E1gy
 Ene=    0.1754881016
 Spin= Alpha
 Occup=    0.00000
   1                     0
   2                     0
   3                     0
   4                     0
   5      0.42778831022313
   6                     0
   7                     0
   8       0.6771621376759
   9                     0
  10                     0
  11                     0
  12    -0.012970905005626
  13                     0
  14                     0
  15                     0
  16                     0
  17                     0
  18                     0
  19     -0.42778831022313
  20                     0
  21                     0
  22      -0.6771621376759
  23                     0
  24                     0
  25                     0
  26    -0.012970905005626
  27                     0
  28                     0
 Sym= A1u
 Ene=    0.5945336697
 Spin= Alpha
 Occup=    0.00000
   1    -0.030756474941565
   2      0.16872809735662
   3       3.9392038640776
   4                     0
   5                     0
   6     0.060557929191023
   7                     0
   8                     0
   9       2.6321598776976
  10     0.053789196088835
  11                     0
  12                     0
  13                     0
  14                     0
  15     0.030756474941565
  16     -0.16872809735662
  17      -3.9392038640776
  18                     0
  19                     0
  20     0.060557929191023
  21                     0
  22                     0
  23       2.6321598776976
  24    -0.053789196088835
  25                     0
  26                     0
  27                     0
  28                     0
 Sym= A1g
 Ene=    0.8202028899
 Spin= Alpha
 Occup=    0.00000
   1     -0.15771324173062
   2     -0.30162563377027
   3    0.0024956113468962
   4                    -0
   5                    -0
   6     -0.46028288374091
   7                    -0
   8                    -0
   9      0.94581933440436
  10    -0.071483403483336
  11                    -0
  12                    -0
  13                    -0
  14                    -0
  15     -0.15771324173062
  16     -0.30162563377027
  17    0.0024956113468962
  18                    -0
  19                    -0
  20      0.46028288374091
  21                    -0
  22                    -0
  23     -0.94581933440436
  24    -0.071483403483336
  25                    -0
  26                    -0
  27                    -0
  28                    -0
 Sym= E1uy
 Ene=    0.8723049328
 Spin= Alpha
 Occup=    0.00000
   1                     0
   2                     0
   3                     0
   4                     0
   5      0.64237874453027
   6                     0
   7                     0
   8     -0.61991361723253
   9                     0
  10                     0
  11                     0
  12      0.10342277661302
  13                     0
  14                     0
  15                     0
  16                     0
  17                     0
  18                     0
  19      0.64237874453027
  20                     0
  21                     0
  22     -0.61991361723253
  23                     0
  24                     0
  25                     0
  26     -0.10342277661302
  27                     0
  28                     0
 Sym= E1ux
 Ene=    0.8723049328
 Spin= Alpha
 Occup=    0.00000
   1                     0
   2                     0
   3                     0
   4      0.64237874453027
   5                     0
   6                     0
   7     -0.61991361723253
   8                     0
   9                     0
  10                     0
  11      0.10342277661302
  12                     0
  13                     0
  14                     0
  15                     0
  16                     0
  17                     0
  18      0.64237874453027
  19                     0
  20                     0
  21     -0.61991361723253
  22                     0
  23                     0
  24                     0
  25     -0.10342277661302
  26                     0
  27                     0
  28                     0
 Sym= A1g
 Ene=    0.9922056709
 Spin= Alpha
 Occup=    0.00000
   1      0.42710497054945
   2       1.0385319493852
   3     -0.93356778397834
   4                    -0
   5                    -0
   6     -0.26900374168411
   7                    -0
   8                    -0
   9      0.18142401361266
  10     0.063620994588959
  11                    -0
  12                    -0
  13                    -0
  14                    -0
  15      0.42710497054945
  16       1.0385319493852
  17     -0.93356778397834
  18                    -0
  19                    -0
  20      0.26900374168411
  21                    -0
  22                    -0
  23     -0.18142401361266
  24     0.063620994588959
  25                    -0
  26                    -0
  27                    -0
  28                    -0
 Sym= E1gx
 Ene=     1.050968781
 Spin= Alpha
 Occup=    0.00000
   1                     0
   2                     0
   3                     0
   4     -0.73264720948463
   5                     0
   6                     0
   7       1.1571257866985
   8                     0
   9                     0
  10                     0
  11     0.068643676175133
  12                     0
  13                     0
  14                     0
  15                     0
  16                     0
  17                     0
  18      0.73264720948463
  19                     0
  20                     0
  21      -1.1571257866985
  22                     0
  23                     0
  24                     0
  25     0.068643676175133
  26                     0
  27                     0
  28                     0
 Sym= E1gy
 Ene=     1.050968781
 Spin= Alpha
 Occup=    0.00000
   1                     0
   2                     0
   3                     0
   4                     0
   5     -0.73264720948463
   6                     0
   7                     0
   8       1.1571257866985
   9                     0
  10                     0
  11                     0
  12     0.068643676175133
  13                     0
  14                     0
  15                     0
  16                     0
  17                     0
  18                     0
  19      0.73264720948463
  20                     0
  21                     0
  22      -1.1571257866985
  23                     0
  24                     0
  25                     0
  26     0.068643676175133
  27                     0
  28                     0
 Sym= A1u
 Ene=     1.143918229
 Spin= Alpha
 Occup=    0.00000
   1     -0.14512453986493
   2     -0.22580845665099
   3      0.64368503597973
   4                    -0
   5                    -0
   6      0.75577007084607
   7                    -0
   8                    -0
   9     -0.18941613786957
  10     -0.23041197036243
  11                    -0
  12                    -0
  13                    -0
  14                    -0
  15      0.14512453986493
  16      0.22580845665099
  17     -0.64368503597973
  18                    -0
  19                    -0
  20      0.75577007084607
  21                    -0
  22                    -0
  23     -0.18941613786957
  24      0.23041197036243
  25                    -0
  26                    -0
  27                    -0
  28                    -0
 Sym= A1u
 Ene=      1.64289875
 Spin= Alpha
 Occup=    0.00000
   1     -0.64718749217999
   2      -1.4383402172737
   3       6.0901205606005
   4                     0
   5                     0
   6     -0.12819437663982
   7                     0
   8                     0
   9       2.7353015417523
  10       0.2170925644621
  11                     0
  12                     0
  13                     0
  14                     0
  15      0.64718749217999
  16       1.4383402172737
  17      -6.0901205606005
  18                     0
  19                     0
  20     -0.12819437663982
  21                     0
  22                     0
  23       2.7353015417523
  24      -0.2170925644621
  25                     0
  26                     0
  27                     0
  28                     0
 Sym= E2gx
 Ene=     1.757495611
 Spin= Alpha
 Occup=    0.00000
   1                     0
   2                     0
   3                     0
   4                     0
   5                     0
   6                     0
   7                     0
   8                     0
   9                     0
  10                     0
  11                     0
  12                     0
  13      0.65308810512717
  14                     0
  15                     0
  16                     0
  17                     0
  18                     0
  19                     0
  20                     0
  21                     0
  22                     0
  23                     0
  24                     0
  25                     0
  26                     0
  27      0.65308810512717
  28                     0
 Sym= E2gy
 Ene=     1.757495611
 Spin= Alpha
 Occup=    0.00000
   1                     0
   2                     0
   3                     0
   4                     0
   5                     0
   6                     0
   7                     0
   8                     0
   9                     0
  10                     0
  11                     0
  12                     0
  13                     0
  14      0.65308810512717
  15                     0
  16                     0
  17                     0
  18                     0
  19                     0
  20                     0
  21                     0
  22                     0
  23                     0
  24                     0
  25                     0
  26                     0
  27                     0
  28      0.65308810512717
 Sym= E1uy
 Ene=     1.881728177
 Spin= Alpha
 Occup=    0.00000
   1                    -0
   2                    -0
   3                    -0
   4                    -0
   5     -0.28933204818989
   6                    -0
   7                    -0
   8     0.068992645339433
   9                    -0
  10                    -0
  11                    -0
  12      0.59536458081902
  13                    -0
  14                    -0
  15                    -0
  16                    -0
  17                    -0
  18                    -0
  19     -0.28933204818989
  20                    -0
  21                    -0
  22     0.068992645339433
  23                    -0
  24                    -0
  25                    -0
  26     -0.59536458081902
  27                    -0
  28                    -0
 Sym= E1ux
 Ene=     1.881728177
 Spin= Alpha
 Occup=    0.00000
   1                    -0
   2                    -0
   3                    -0
   4     -0.28933204818989
   5                    -0
   6                    -0
   7     0.068992645339433
   8                    -0
   9                    -0
  10                    -0
  11      0.59536458081902
  12                    -0
  13                    -0
  14                    -0
  15                    -0
  16                    -0
  17                    -0
  18     -0.28933204818989
  19                    -0
  20                    -0
  21     0.068992645339433
  22                    -0
  23                    -0
  24                    -0
  25     -0.59536458081902
  26                    -0
  27                    -0
  28                    -0
 Sym= E2uy
 Ene=     2.298767324
 Spin= Alpha
 Occup=    0.00000
   1                     0
   2                     0
   3                     0
   4                     0
   5                     0
   6                     0
   7                     0
   8                     0
   9                     0
  10                     0
  11                     0
  12                     0
  13                     0
  14      0.77721255658978
  15                     0
  16                     0
  17                     0
  18                     0
  19                     0
  20                     0
  21                     0
  22                     0
  23                     0
  24                     0
  25                     0
  26                     0
  27                     0
  28     -0.77721255658978
 Sym= E2ux
 Ene=     2.298767324
 Spin= Alpha
 Occup=    0.00000
   1                     0
   2                     0
   3                     0
   4                     0
   5                     0
   6                     0
   7                     0
   8                     0
   9                     0
  10                     0
  11                     0
  12                     0
  13      0.77721255658978
  14                     0
  15                     0
  16                     0
  17                     0
  18                     0
  19                     0
  20                     0
  21                     0
  22                     0
  23                     0
  24                     0
  25                     0
  26                     0
  27     -0.77721255658978
  28                     0
 Sym= A1g
 Ene=     2.874132759
 Spin= Alpha
 Occup=    0.00000
   1     -0.38702165950471
   2     -0.72824248665389
   3      0.32915498826634
   4                     0
   5                     0
   6     -0.36600653320194
   7                     0
   8                     0
   9      0.55017434446868
  10      0.83512267448014
  11                     0
  12                     0
  13                     0
  14                     0
  15     -0.38702165950471
  16     -0.72824248665389
  17      0.32915498826634
  18                     0
  19                     0
  20      0.36600653320194
  21                     0
  22                     0
  23     -0.55017434446868
  24      0.83512267448014
  25                     0
  26                     0
  27                     0
  28                     0
 Sym= E1gx
 Ene=     2.996116482
 Spin= Alpha
 Occup=    0.00000
   1                     0
   2                     0
   3                     0
   4      0.24298706263763
   5                     0
   6                     0
   7      0.46347982586716
   8                     0
   9                     0
  10                     0
  11       1.1033549019827
  12                     0
  13                     0
  14                     0
  15                     0
  16                     0
  17                     0
  18     -0.24298706263763
  19                     0
  20                     0
  21     -0.46347982586716
  22                     0
  23                     0
  24                     0
  25       1.1033549019827
  26                     0
  27                     0
  28                     0
 Sym= E1gy
 Ene=     2.996116482
 Spin= Alpha
 Occup=    0.00000
   1                     0
   2                     0
   3                     0
   4                     0
   5      0.24298706263763
   6                     0
   7                     0
   8      0.46347982586716
   9                     0
  10                     0
  11                     0
  12       1.1033549019827
  13                     0
  14                     0
  15                     0
  16                     0
  17                     0
  18                     0
  19     -0.24298706263763
  20                     0
  21                     0
  22     -0.46347982586716
  23                     0
  24                     0
  25                     0
  26       1.1033549019827
  27                     0
  28                     0
 Sym= A1u
 Ene=     3.283122816
 Spin= Alpha
 Occup=    0.00000
   1      0.18020056495745
   2      0.48157258697728
   3       3.2185282316757
   4                     0
   5                     0
   6       1.0719814948003
   7                     0
   8                     0
   9       1.6320368286845
  10       1.1998892425663
  11                     0
  12                     0
  13                     0
  14                     0
  15     -0.18020056495745
  16     -0.48157258697728
  17      -3.2185282316757
  18                     0
  19                     0
  20       1.0719814948003
  21                     0
  22                     0
  23       1.6320368286845
  24      -1.1998892425663
  25                     0
  26                     0
  27                     0
  28                     0
