
                                 *****************
                                 * O   R   C   A *
                                 *****************

                                            #,                                       
                                            ###                                      
                                            ####                                     
                                            #####                                    
                                            ######                                   
                                           ########,                                 
                                     ,,################,,,,,                         
                               ,,#################################,,                 
                          ,,##########################################,,             
                       ,#########################################, ''#####,          
                    ,#############################################,,   '####,        
                  ,##################################################,,,,####,       
                ,###########''''           ''''###############################       
              ,#####''   ,,,,##########,,,,          '''####'''          '####       
            ,##' ,,,,###########################,,,                        '##       
           ' ,,###''''                  '''############,,,                           
         ,,##''                                '''############,,,,        ,,,,,,###''
      ,#''                                            '''#######################'''  
     '                                                          ''''####''''         
             ,#######,   #######,   ,#######,      ##                                
            ,#'     '#,  ##    ##  ,#'     '#,    #''#        ,####,    ,#,          
            ##       ##  ##   ,#'  ##            #'  '#       #'       ,# #          
            ##       ##  #######   ##           ,######,      #####,      #          
            '#,     ,#'  ##    ##  '#,     ,#' ,#      #,     #,   #      #          
             '#######'   ##     ##  '#######'  #'      '#     '####' #    #          



                #########################################################
                #                        -***-                          #
                #          Department of theory and spectroscopy        #
                #                                                       #
                #                      Frank Neese                      #
                #                                                       #
                #     Directorship, Architecture, Infrastructure        #
                #                    SHARK, DRIVERS                     #
                #        Core code/Algorithms in most modules           #
                #                                                       #
                #        Max Planck Institute fuer Kohlenforschung      #
                #                Kaiser Wilhelm Platz 1                 #
                #                 D-45470 Muelheim/Ruhr                 #
                #                      Germany                          #
                #                                                       #
                #                  All rights reserved                  #
                #                        -***-                          #
                #########################################################


                         Program Version 6.1.1  -  RELEASE   -
                                (GIT: $487d211cc3$)
                          ($2025-11-21 10:33:24 +0100$)


 With contributions from (in alphabetic order):
[Max-Planck-Institut fuer Kohlenforschung]                               
  Daniel Aravena         : Magnetic Suceptibility                        
  Michael Atanasov       : Ab Initio Ligand Field Theory (pilot matlab implementation)
  Alexander A. Auer      : GIAO ZORA, VPT2 properties, NMR spectrum      
  Ute Becker             : All parallelization in ORCA, NUMFREQ, NUMCALC 
  Giovanni Bistoni       : ED, misc. LED, open-shell LED, HFLD           
  Dmytro Bykov           : pre 5.0 version of the SCF Hessian            
  Marcos Casanova-Páez   : Triplet and SCS-CIS(D). UHF-(DLPNO)-IP/EA/STEOM-CCSD. UHF-CVS-IP/STEOM-CCSD   
  Vijay G. Chilkuri      : MRCI spin determinant printing, contributions to CSF-ICE 
  Pauline Colinet        : FMM embedding                                 
  Dipayan Datta          : RHF DLPNO-CCSD density                        
  Achintya Kumar Dutta   : EOM-CC, STEOM-CC                              
  Nicolas Foglia         : Exact transition moments, OPA infrastructure, MCD improvements    
  Dmitry Ganyushin       : Spin-Orbit,Spin-Spin,Magnetic field MRCI      
  Miquel Garcia-Rates    : C-PCM and meta-GGA Hessian, CCSD/C-PCM, Gaussian charge scheme 
  Tiago L. C. Gouveia    : GS-ROHF, GS-ROCIS                             
  Yang Guo               : DLPNO-NEVPT2, F12-NEVPT2, CIM, IAO-localization        
  Andreas Hansen         : Spin unrestricted coupled pair/coupled cluster methods 
  Ingolf Harden          : AUTO-CI MPn and infrastructure                
  Benjamin Helmich-Paris : MC-RPA, TRAH-(SCF,CASSCF), AVAS, COSX integrals, SCF dyn. polar., MC-PDFT, srDFT 
  Lee Huntington         : MR-EOM, pCC                                   
  Robert Izsak           : Overlap fitted RIJCOSX, COSX-SCS-MP3, EOM     
  Riya Kayal             : Wick's Theorem for AUTO-CI, AUTO-CI UHF-CCSDT 
  Emily Kempfer          : AUTO-CI RHF CISDT and CCSDT, approximate NEVPT4
  Christian Kollmar      : KDIIS, OOCD, Brueckner-CCSD(T), CCSD density, CASPT2, CASPT2-K, improved NEVPT2 
  Axel Koslowski         : Symmetry handling                             
  Simone Kossmann        : meta-GGA functionals, TD-DFT gradient, OOMP2, (MP2 Hessian; deprecated post 5.0) 
  Lucas Lang             : DCDCAS, Hyperfine gauge corrections, ICE-SOC+SSC
  Marvin Lechner         : AUTO-CI (C++ implementation), FIC-MRCC        
  Spencer Leger          : CASSCF response                               
  Dagmar Lenk            : GEPOL surface, SMD, ORCA-2-JSON               
  Dimitrios Liakos       : Extrapolation schemes; Compound Job, Property file
  Dimitrios Manganas     : Further ROCIS development; embedding schemes. LFT, Crystal Embedding 
  Dimitrios Pantazis     : SARC Basis sets                               
  Anastasios Papadopoulos: AUTO-CI, single reference methods and gradients 
  Taras Petrenko         : pre 6.0 DFT Hessian and TD-DFT gradient,  ECA, NRVS 
  Petra Pikulova         : Analytic Raman intensities                    
  Peter Pinski           : DLPNO-MP2, DLPNO-MP2 Gradient                 
  Shashank Vittal Rao    : ES-AILFT, MagRelax                            
  Christoph Reimann      : Effective Core Potentials                     
  Marius Retegan         : Local ZFS, SOC                                
  Christoph Riplinger    : Optimizer, TS searches, QM/MM, DLPNO-CCSD(T), (RO)-DLPNO pert. Triples 
  Michael Roemelt        : Original ROCIS implementation, recursive CI coupling coefficients
  Masaaki Saitow         : Open-shell DLPNO-CCSD energy and density      
  Barbara Sandhoefer     : DKH picture change effects                    
  Yorick L. A. Schmerwitz: GMF and freeze-and-release deltaSCF, NEB S-IDPP initial path                    
  Kantharuban Sivalingam : CASSCF convergence/infrastructure, NEVPT2, NEVPT3, NEVPT4(SD), FIC-MRCI and CEPA variants
  Bernardo de Souza      : ESD, SOC TD-DFT                               
  Georgi L. Stoychev     : AutoAux, RI-MP2 NMR, DLPNO-MP2 response, X2C  
  Van Anh Tran           : RI-MP2 g-tensors                              
  Willem Van den Heuvel  : Paramagnetic NMR                              
  Zikuan Wang            : NOTCH, Electric field optimization            
  Frank Wennmohs         : Technical directorship and infrastructure     
  Hang Xu                : AUTO-CI-Response properties                   
                                                                         
[FACCTs GmbH]                                                            
  Markus Bursch, Nicolas Foglia, Miquel Garcia-Rates, Ingolf Harden, Hagen Neugebauer, Anastasios Papadopoulos, 
  Christoph Riplinger, Bernardo de Souza, Georgi L. Stoychev                                                    
                                                                 
  APM, various basis sets, CI-OPT, improved COSX, DLPNO-Multilevel,           
  DOCKER, DRACO, updates on ESD, Fragmentator, GOAT, IRC, LR-CPCM, L-BFGS, MBIS, meta-GGA TD-DFT gradient, ML-optimized integration grids, 
  MM, NACMEs, nearIR, NEB, NEB-TS, NL-DFT gradient (VV10), 2- and 3-layer-ONIOM, interface openCOSMO-RS, QMMM,   
  Crystal-QMMM, RESP, rigid body optimization, SF, symmetry and pop. for TD-DFT, various functionals, SOLVATOR                                   
                                                                         
[Other institutions]                                                     
  V. Asgeirsson          : NEB                                           
  Christoph Bannwarth    : sTDA-DFT, sTD-DFT, PBEh-3c, B97-3c, D3        
  Giovanni Bistoni       : ETS/NOCV, ADLD/ADEX, COVALED                  
  Martin Brehm           : Molecular dynamics                            
  Ronald Cardenas        : ETS/NOCV                                      
  Martina Colucci        : COVALED                                       
  Sebastian Ehlert       : rSCAN, r2SCAN, r2SCAN-3c, D4, dhf basis sets  
  Marvin Friede          : D4 for Fr, Ra, Ac-Lr                          
  Lars Goerigk           : TD-DFT with DH, B97 family of functionals     
  Stefan Grimme          : VdW corrections, initial TS optimization, DFT functionals, gCP, sTDA/sTD-DF 
  Waldemar Hujo          : DFT-NL                                        
  H. Jonsson             : NEB                                           
  Holger Kruse           : gCP                                           
  Marcel Mueller         : wB97X-3c, vDZP basis set                      
  Hagen Neugebauer       : wr2SCAN, Native XTB                           
  Gianluca Regni         : ADLD/ADEX                                     
  Tobias Risthaus        : pre 6.0 range-separated hybrid DFT and stability analysis
  Lukas Wittmann         : regularized MP2, r2SCAN double-hybrids, wr2SCAN        
                                                                         
We gratefully acknowledge several colleagues who have allowed us to      
interface, adapt or use parts of their codes:                            
  Ed Valeev, F. Pavosevic, A. Kumar             : LibInt (2-el integral package), F12 methods 
  Garnet Chan, S. Sharma, J. Yang, R. Olivares  : DMRG                   
  Ulf Ekstrom                                   : XCFun DFT Library      
  Mihaly Kallay                                 : mrcc  (arbitrary order and MRCC methods)
  Frank Weinhold                                : gennbo (NPA and NBO analysis)           
  Simon Mueller                                 : openCOSMO-RS                            
  Christopher J. Cramer and Donald G. Truhlar   : smd solvation model                     
  S Lehtola, MJT Oliveira, MAL Marques          : LibXC Library                           
  Liviu Ungur et al                             : ANISO software                          


 Your calculation uses the libint2 library for the computation of 2-el integrals
 For citations please refer to: http://libint.valeyev.net

 Your ORCA version has been built with support for libXC version: 7.0.0
 For citations please refer to: https://libxc.gitlab.io

 This ORCA versions uses:
   CBLAS   interface :  Fast vector & matrix operations
   LAPACKE interface :  Fast linear algebra routines
   SCALAPACK package :  Parallel linear algebra routines
   Shared memory     :  Shared parallel matrices


  ***********************************
  * Starting time: Fri Apr 24 17:05:36 2026
  * Host name:     student-net-vpn-1404.intern.ethz.ch
  * Process ID:    46041
  * Working dir.:  /Users/kszenes/code/moltui/wt/cclib/data/orca/traj
  ***********************************

Warning: RI is on but no J-basis has been assigned. Assigning Def2/J (nothing to worry about!)
================================================================================

----- Orbital basis set information -----
Your calculation utilizes the basis: cc-pVDZ 
       H, B-Ne : Obtained from the ccRepo (grant-hill.group.shef.ac.uk/ccrepo) Feb. 2017
                 T. H. Dunning, Jr., J. Chem. Phys. 90, 1007 (1989)
            He : Obtained from the ccRepo (grant-hill.group.shef.ac.uk/ccrepo) Feb. 2017
                 D. E. Woon, T. H. Dunning, Jr., J. Chem. Phys. 100, 2975 (1994)
  Li-Be, Na-Mg : Obtained from the ccRepo (grant-hill.group.shef.ac.uk/ccrepo) Feb. 2017
                 B. P. Prascher, D. E. Woon, K. A. Peterson, T. H. Dunning, Jr., A. K. Wilson, Theor. Chem. Acc. 128, 69 (2011)
         Al-Ar : Obtained from the ccRepo (grant-hill.group.shef.ac.uk/ccrepo) Feb. 2017
                 D. E. Woon, T. H. Dunning, Jr., J. Chem. Phys. 98, 1358 (1993)
            Ca : Obtained from the Peterson Research Group Website (tyr0.chem.wsu.edu/~kipeters) Feb. 2017
                 J. Koput, K. A. Peterson, J. Phys. Chem. 106, 9595 (2002)
         Sc-Zn : Obtained from the ccRepo (grant-hill.group.shef.ac.uk/ccrepo) Feb. 2017
                 N. B. Balabanov, K. A. Peterson, J. Chem. Phys. 123, 064107 (2005)
                 N. B. Balabanov, K. A. Peterson, J. Chem. Phys. 125, 074110 (2006)
         Ga-Kr : Obtained from the ccRepo (grant-hill.group.shef.ac.uk/ccrepo) Feb. 2017
                 A. K. Wilson, D. E. Woon, K. A. Peterson, T. H. Dunning, Jr., J. Chem. Phys. 110, 7667 (1999)

----- AuxJ basis set information -----
Your calculation utilizes the auxiliary basis: def2/J
   H-Rn: F. Weigend, Phys. Chem. Chem. Phys. 8, 1057 (2006).
   Fr-Lr: K. Eichkorn, F. Weigend, O. Treutler, R. Ahlrichs; Theor. Chem. Acc. 97, 119 (1997).

================================================================================
                                        WARNINGS
                       Please study these warnings very carefully!
================================================================================

WARNING: Old DensityContainer found on disk!
         Will remove this file - 
         If you want to keep old densities, please start your calculation with a different basename. 


================================================================================
                                       INPUT FILE
================================================================================
NAME = benzene_opt.inp
|  1> ! opt cc-pvdz pbe printbasis printmos noautostart
|  2> 
|  3> * xyz 0 1
|  4> C  1.400000  0.000000  0.320000
|  5> C  0.700000  1.212436 -0.320000
|  6> C -0.700000  1.212436  0.320000
|  7> C -1.400000  0.000000 -0.320000
|  8> C -0.700000 -1.212436  0.320000
|  9> C  0.700000 -1.212436 -0.320000
| 10> H  2.450000  0.000000  0.432000
| 11> H  1.225000  2.121762 -0.432000
| 12> H -1.225000  2.121762  0.432000
| 13> H -2.450000  0.000000 -0.432000
| 14> H -1.225000 -2.121762  0.432000
| 15> H  1.225000 -2.121762 -0.432000
| 16> *
| 17> 
| 18> 
| 19>                          ****END OF INPUT****
================================================================================

                       *****************************
                       * Geometry Optimization Run *
                       *****************************

Geometry optimization settings:
Update method            Update   .... BFGS
Choice of coordinates    CoordSys .... (2022) Redundant Internals
Initial Hessian          InHess   .... Almloef's Model
Max. no of cycles        MaxIter  .... 50

Convergence Tolerances:
Energy Change            TolE     ....  5.0000e-06 Eh
Max. Gradient            TolMAXG  ....  3.0000e-04 Eh/bohr
RMS Gradient             TolRMSG  ....  1.0000e-04 Eh/bohr
Max. Displacement        TolMAXD  ....  4.0000e-03 bohr
RMS Displacement         TolRMSD  ....  2.0000e-03 bohr
Strict Convergence                .... False

------------------------------------------------------------------------------
                        ORCA OPTIMIZATION COORDINATE SETUP
------------------------------------------------------------------------------

The optimization will be done in redundant internal coordinates (2022)
Making redundant internal coordinates   ...  (2022 redundants) done
Evaluating the initial hessian          ...  (Almloef) done
Evaluating the coordinates              ...  done
Calculating the B-matrix                .... done
Calculating the G-matrix                .... done
The number of degrees of freedom        ....   54

    -----------------------------------------------------------------
                    Redundant Internal Coordinates


    -----------------------------------------------------------------
         Definition                    Initial Value    Approx d2E/dq
    -----------------------------------------------------------------
      1. B(C   1,C   0)                  1.5394         0.360960   
      2. B(C   2,C   1)                  1.5394         0.360960   
      3. B(C   3,C   2)                  1.5394         0.360960   
      4. B(C   4,C   3)                  1.5394         0.360960   
      5. B(C   5,C   4)                  1.5394         0.360960   
      6. B(C   5,C   0)                  1.5394         0.360960   
      7. B(H   6,C   0)                  1.0560         0.408073   
      8. B(H   7,C   1)                  1.0560         0.408073   
      9. B(H   8,C   2)                  1.0560         0.408073   
     10. B(H   9,C   3)                  1.0560         0.408073   
     11. B(H  10,C   4)                  1.0560         0.408073   
     12. B(H  11,C   5)                  1.0560         0.408073   
     13. A(C   1,C   0,C   5)          103.9288         0.359118   
     14. A(C   1,C   0,H   6)          119.7535         0.329200   
     15. A(C   5,C   0,H   6)          119.7535         0.329200   
     16. A(C   2,C   1,H   7)          119.7535         0.329200   
     17. A(C   0,C   1,C   2)          103.9288         0.359118   
     18. A(C   0,C   1,H   7)          119.7535         0.329200   
     19. A(C   3,C   2,H   8)          119.7535         0.329200   
     20. A(C   1,C   2,H   8)          119.7535         0.329200   
     21. A(C   1,C   2,C   3)          103.9288         0.359118   
     22. A(C   4,C   3,H   9)          119.7535         0.329200   
     23. A(C   2,C   3,H   9)          119.7535         0.329200   
     24. A(C   2,C   3,C   4)          103.9288         0.359118   
     25. A(C   3,C   4,H  10)          119.7535         0.329200   
     26. A(C   3,C   4,C   5)          103.9288         0.359118   
     27. A(C   5,C   4,H  10)          119.7535         0.329200   
     28. A(C   0,C   5,C   4)          103.9288         0.359118   
     29. A(C   4,C   5,H  11)          119.7535         0.329200   
     30. A(C   0,C   5,H  11)          119.7535         0.329200   
     31. D(H   7,C   1,C   0,C   5)   -151.5371         0.010000   
     32. D(H   7,C   1,C   0,H   6)    -14.5907         0.010000   
     33. D(C   2,C   1,C   0,H   6)   -151.5371         0.010000   
     34. D(C   2,C   1,C   0,C   5)     71.5166         0.010000   
     35. D(H   8,C   2,C   1,C   0)    151.5371         0.010000   
     36. D(C   3,C   2,C   1,C   0)    -71.5166         0.010000   
     37. D(C   3,C   2,C   1,H   7)    151.5371         0.010000   
     38. D(H   8,C   2,C   1,H   7)     14.5907         0.010000   
     39. D(H   9,C   3,C   2,H   8)    -14.5907         0.010000   
     40. D(H   9,C   3,C   2,C   1)   -151.5371         0.010000   
     41. D(C   4,C   3,C   2,H   8)   -151.5371         0.010000   
     42. D(C   4,C   3,C   2,C   1)     71.5166         0.010000   
     43. D(H  10,C   4,C   3,C   2)    151.5371         0.010000   
     44. D(C   5,C   4,C   3,H   9)    151.5371         0.010000   
     45. D(C   5,C   4,C   3,C   2)    -71.5166         0.010000   
     46. D(H  10,C   4,C   3,H   9)     14.5907         0.010000   
     47. D(H  11,C   5,C   4,H  10)    -14.5907         0.010000   
     48. D(C   0,C   5,C   4,H  10)   -151.5371         0.010000   
     49. D(C   0,C   5,C   4,C   3)     71.5166         0.010000   
     50. D(H  11,C   5,C   0,H   6)     14.5907         0.010000   
     51. D(H  11,C   5,C   0,C   1)    151.5371         0.010000   
     52. D(H  11,C   5,C   4,C   3)   -151.5371         0.010000   
     53. D(C   4,C   5,C   0,H   6)    151.5371         0.010000   
     54. D(C   4,C   5,C   0,C   1)    -71.5166         0.010000   
    -----------------------------------------------------------------

Number of atoms                         .... 12
Number of degrees of freedom            .... 54


         *************************************************************
         *                GEOMETRY OPTIMIZATION CYCLE   1            *
         *************************************************************
---------------------------------
CARTESIAN COORDINATES (ANGSTROEM)
---------------------------------
  C      1.400000    0.000000    0.320000
  C      0.700000    1.212436   -0.320000
  C     -0.700000    1.212436    0.320000
  C     -1.400000    0.000000   -0.320000
  C     -0.700000   -1.212436    0.320000
  C      0.700000   -1.212436   -0.320000
  H      2.450000    0.000000    0.432000
  H      1.225000    2.121762   -0.432000
  H     -1.225000    2.121762    0.432000
  H     -2.450000    0.000000   -0.432000
  H     -1.225000   -2.121762    0.432000
  H      1.225000   -2.121762   -0.432000

----------------------------
CARTESIAN COORDINATES (A.U.)
----------------------------
  NO LB      ZA    FRAG     MASS         X           Y           Z
   0 C     6.0000    0    12.011    2.645617    0.000000    0.604712
   1 C     6.0000    0    12.011    1.322808    2.291172   -0.604712
   2 C     6.0000    0    12.011   -1.322808    2.291172    0.604712
   3 C     6.0000    0    12.011   -2.645617    0.000000   -0.604712
   4 C     6.0000    0    12.011   -1.322808   -2.291172    0.604712
   5 C     6.0000    0    12.011    1.322808   -2.291172   -0.604712
   6 H     1.0000    0     1.008    4.629829    0.000000    0.816362
   7 H     1.0000    0     1.008    2.314915    4.009549   -0.816362
   8 H     1.0000    0     1.008   -2.314915    4.009549    0.816362
   9 H     1.0000    0     1.008   -4.629829    0.000000   -0.816362
  10 H     1.0000    0     1.008   -2.314915   -4.009549    0.816362
  11 H     1.0000    0     1.008    2.314915   -4.009549   -0.816362

--------------------------------
INTERNAL COORDINATES (ANGSTROEM)
--------------------------------
 C      0   0   0     0.000000000000     0.00000000     0.00000000
 C      1   0   0     1.539350854775     0.00000000     0.00000000
 C      2   1   0     1.539350512392   103.92878416     0.00000000
 C      3   2   1     1.539350854775   103.92878416   288.48341348
 C      4   3   2     1.539350854775   103.92880726    71.51660366
 C      5   4   3     1.539350512392   103.92878416   288.48339634
 H      1   2   3     1.055956438495   119.75350390   208.46293541
 H      2   1   3     1.055955858110   119.75350477   136.94634530
 H      3   2   1     1.055955858110   119.75352919   151.53708122
 H      4   3   2     1.055956438495   119.75350390   208.46293541
 H      5   4   3     1.055955858110   119.75350477   151.53705105
 H      6   5   4     1.055955858110   119.75352919   208.46291878

---------------------------
INTERNAL COORDINATES (A.U.)
---------------------------
 C      0   0   0     0.000000000000     0.00000000     0.00000000
 C      1   0   0     2.908951539542     0.00000000     0.00000000
 C      2   1   0     2.908950892531   103.92878416     0.00000000
 C      3   2   1     2.908951539542   103.92878416   288.48341348
 C      4   3   2     2.908951539542   103.92880726    71.51660366
 C      5   4   3     2.908950892531   103.92878416   288.48339634
 H      1   2   3     1.995468478107   119.75350390   208.46293541
 H      2   1   3     1.995467381337   119.75350477   136.94634530
 H      3   2   1     1.995467381337   119.75352919   151.53708122
 H      4   3   2     1.995468478107   119.75350390   208.46293541
 H      5   4   3     1.995467381337   119.75350477   151.53705105
 H      6   5   4     1.995467381337   119.75352919   208.46291878

---------------------
BASIS SET INFORMATION
---------------------
There are 2 groups of distinct atoms

 Group   1 Type C   : 17s4p1d contracted to 3s2p1d pattern {881/31/1}
 Group   2 Type H   : 4s1p contracted to 2s1p pattern {31/1}

Atom   0C    basis set group =>   1
Atom   1C    basis set group =>   1
Atom   2C    basis set group =>   1
Atom   3C    basis set group =>   1
Atom   4C    basis set group =>   1
Atom   5C    basis set group =>   1
Atom   6H    basis set group =>   2
Atom   7H    basis set group =>   2
Atom   8H    basis set group =>   2
Atom   9H    basis set group =>   2
Atom  10H    basis set group =>   2
Atom  11H    basis set group =>   2

-------------------------
BASIS SET IN INPUT FORMAT
-------------------------

 # Basis set for element : H 
 NewGTO H 
 S 3 
   1      13.0100000000      0.0334987264
   2       1.9620000000      0.2348008012
   3       0.4446000000      0.8136829579
 S 1 
   1       0.1220000000      1.0000000000
 P 1 
   1       0.7270000000      1.0000000000
  end;

 # Basis set for element : C 
 NewGTO C 
 S 8 
   1    6665.0000000000      0.0006915840
   2    1000.0000000000      0.0053257962
   3     228.0000000000      0.0270607210
   4      64.7100000000      0.1016568461
   5      21.0600000000      0.2745748236
   6       7.4950000000      0.4482943189
   7       2.7970000000      0.2849026107
   8       0.5215000000      0.0151948592
 S 8 
   1    6665.0000000000     -0.0002932697
   2    1000.0000000000     -0.0023180355
   3     228.0000000000     -0.0114997860
   4      64.7100000000     -0.0468267270
   5      21.0600000000     -0.1284661688
   6       7.4950000000     -0.3012662725
   7       2.7970000000     -0.2556307023
   8       0.5215000000      1.0937933610
 S 1 
   1       0.1596000000      1.0000000000
 P 3 
   1       9.4390000000      0.0569792516
   2       2.0020000000      0.3132072115
   3       0.5456000000      0.7603767417
 P 1 
   1       0.1517000000      1.0000000000
 D 1 
   1       0.5500000000      1.0000000000
  end;

---------------------------------
AUXILIARY/J BASIS SET INFORMATION
---------------------------------
There are 2 groups of distinct atoms

 Group   1 Type C   : 12s5p4d2f1g contracted to 6s4p3d1f1g pattern {711111/2111/211/2/1}
 Group   2 Type H   : 5s2p1d contracted to 3s1p1d pattern {311/2/1}

Atom   0C    basis set group =>   1
Atom   1C    basis set group =>   1
Atom   2C    basis set group =>   1
Atom   3C    basis set group =>   1
Atom   4C    basis set group =>   1
Atom   5C    basis set group =>   1
Atom   6H    basis set group =>   2
Atom   7H    basis set group =>   2
Atom   8H    basis set group =>   2
Atom   9H    basis set group =>   2
Atom  10H    basis set group =>   2
Atom  11H    basis set group =>   2

-------------------------------------
AUXILIARY/J BASIS SET IN INPUT FORMAT
-------------------------------------

 # Auxiliary/J basis set for element : H 
 NewAuxJGTO H 
 S 3 
   1      15.6752927000      0.1007184237
   2       3.6063578000      0.3404257499
   3       1.2080016000      0.6491996172
 S 1 
   1       0.4726794000      1.0000000000
 S 1 
   1       0.2018100000      1.0000000000
 P 2 
   1       2.0281365000      0.5596620919
   2       0.5358730000      0.5596620919
 D 1 
   1       2.2165124000      1.0000000000
  end;

 # Auxiliary/J basis set for element : C 
 NewAuxJGTO C 
 S 7 
   1    1861.0916331000      0.0134602335
   2     642.9939764000      0.0299160374
   3     235.1105725000      0.1008649584
   4      90.7028894000      0.2370970548
   5      36.7794552000      0.3924037254
   6      15.6046273000      0.3195862154
   7       6.8907294000      0.0530104441
 S 1 
   1       3.1478850000     -1.0000000000
 S 1 
   1       1.4777287000      1.0000000000
 S 1 
   1       0.7076466000      1.0000000000
 S 1 
   1       0.3430122000      1.0000000000
 S 1 
   1       0.1669453000      1.0000000000
 P 2 
   1      13.5472892000     -0.6769313712
   2       5.4669419000     -0.3779500978
 P 1 
   1       2.1751721000      1.0000000000
 P 1 
   1       0.8582194000      1.0000000000
 P 1 
   1       0.3376720000      1.0000000000
 D 2 
   1       5.9287253000     -0.3533329857
   2       1.9809209000     -0.7456525731
 D 1 
   1       0.8055417000     -1.0000000000
 D 1 
   1       0.3531244000     -1.0000000000
 F 2 
   1       1.6755626000      0.6311076882
   2       0.5997536000      0.4968166032
 G 1 
   1       1.0024600000     -1.0000000000
  end;

------------------------------------------------------------------------------
                             ORCA STARTUP CALCULATIONS
                           -- RI-GTO INTEGRALS CHOSEN --
------------------------------------------------------------------------------
------------------------------------------------------------------------------
                   ___                                                        
                  /   \      - P O W E R E D   B Y -                         
                 /     \                                                     
                 |  |  |   _    _      __       _____    __    __             
                 |  |  |  | |  | |    /  \     |  _  \  |  |  /  |          
                  \  \/   | |  | |   /    \    | | | |  |  | /  /          
                 / \  \   | |__| |  /  /\  \   | |_| |  |  |/  /          
                |  |  |   |  __  | /  /__\  \  |    /   |      \           
                |  |  |   | |  | | |   __   |  |    \   |  |\   \          
                \     /   | |  | | |  |  |  |  | |\  \  |  | \   \       
                 \___/    |_|  |_| |__|  |__|  |_| \__\ |__|  \__/        
                                                                              
                      - O R C A' S   B I G   F R I E N D -                    
                                      &                                       
                       - I N T E G R A L  F E E D E R -                       
                                                                              
 v1 FN, 2020, v2 2021, v3 2022-2024                                           
------------------------------------------------------------------------------


----------------------
SHARK INTEGRAL PACKAGE
----------------------

Number of atoms                             ...     12
Number of basis functions                   ...    150
Number of shells                            ...     90
Maximum angular momentum                    ...      2
Integral batch strategy                     ... SHARK/LIBINT Hybrid
RI-J (if used) integral strategy            ... SPLIT-RIJ (Revised 2003 algorithm where possible)
Printlevel                                  ...      1
Contraction scheme used                     ... PARTIAL GENERAL contraction
Prescreening option                         ... SCHWARTZ
   Thresh                                   ... 2.500e-11
   Tcut                                     ... 2.500e-12
   Tpresel                                  ... 2.500e-12 
Coulomb Range Separation                    ... NOT USED
Exchange Range Separation                   ... NOT USED
Multipole approximations                    ... NOT USED
Finite Nucleus Model                        ... NOT USED
CABS basis                                  ... NOT available
Auxiliary Coulomb fitting basis             ... AVAILABLE
   # of basis functions in Aux-J            ...    360
   # of shells in Aux-J                     ...    120
   Maximum angular momentum in Aux-J        ...      4
Auxiliary J/K fitting basis                 ... NOT available
Auxiliary Correlation fitting basis         ... NOT available
Auxiliary 'external' fitting basis          ... NOT available

Checking pre-screening integrals            ... done (  0.0 sec) Dimension = 90
Save PGC pre-screening integrals            ... done (  0.0 sec) Dimension = 90
Calculate PGC overlap integrals             ... done (  0.0 sec) Dimension = 54
Calculating pre-screening integrals (ORCA)  ... done (  0.0 sec) Dimension = 54
Shell pair information
Shell pair cut-off parameter TPreSel        ...   2.5e-12
Total number of shell pairs                 ...      4095
Shell pairs after pre-screening             ...      3315
Total number of primitive shell pairs       ...      6591
Primitive shell pairs kept                  ...      4785
          la=0 lb=0:   1536 shell pairs
          la=1 lb=0:   1086 shell pairs
          la=1 lb=1:    168 shell pairs
          la=2 lb=0:    396 shell pairs
          la=2 lb=1:    108 shell pairs
          la=2 lb=2:     21 shell pairs

Checking whether 4 symmetric matrices of dimension 150 fit in memory
:Max Core in MB      =   4096.00
 MB in use           =      5.96
 MB left             =   4090.04
 MB needed           =      0.35
 Data fit in memory  = YES
Calculating RI/J V-Matrix + Cholesky decomp.... done (  0.0 sec)
Calculating Nuclear repulsion               ... done (  0.0 sec) ENN=    194.632260240886 Eh

Diagonalization of the overlap matrix:
Smallest eigenvalue                        ... 3.832e-03
Time for diagonalization                   ...    0.001 sec
Threshold for overlap eigenvalues          ... 1.000e-07
Number of eigenvalues below threshold      ... 0
Time for construction of square roots      ...    0.000 sec
Total time needed                          ...    0.001 sec

-------------------
DFT GRID GENERATION
-------------------

General Integration Accuracy     IntAcc      ... 4.388
Radial Grid Type                 RadialGrid  ... OptM3 with GC (2021)
Angular Grid (max. ang.)         AngularGrid ... 4 (Lebedev-302)
Angular grid pruning method      GridPruning ... 4 (adaptive)
Weight generation scheme         WeightScheme... mBecke (2022)
Basis function cutoff            BFCut       ... 1.0000e-11
Integration weight cutoff        WCut        ... 1.0000e-14
Partially contracted basis set               ... off
Rotationally invariant grid construction     ... off
Angular grids for H and He will be reduced by one unit

Total number of grid points                  ...    55666
Total number of batches                      ...      876
Average number of points per batch           ...       63
Average number of grid points per atom       ...     4639

---------------------
SHARK GRID GENERATION
---------------------

General Integration Accuracy     IntAcc      ... 4.388
Radial Grid Type                 RadialGrid  ... OptM3 with GC (2021)
Angular Grid (max. ang.)         AngularGrid ... 4 (Lebedev-302)
Angular grid pruning method      GridPruning ... 4 (adaptive)
Weight generation scheme         WeightScheme... mBecke (2022)
Basis function cutoff            BFCut       ... 1.0000e-11
Integration weight cutoff        WCut        ... 1.0000e-14
Partially contracted basis set               ... off
Rotationally invariant grid construction     ... off
Angular grids for H and He will be reduced by one unit
Steep s-basis detected: some atoms will have their radial
                        grid points doubled.

Total number of grid points                  ...    92296
Total number of batches                      ...     1447
Average number of points per batch           ...       63
Average number of grid points per atom       ...     7691
Grids setup in   0.7 sec
Initializing property integral containers    ... done (  0.0 sec)

SHARK setup successfully completed in   0.8 seconds

Maximum memory used throughout the entire STARTUP-calculation: 34.3 MB
-------------------------------------------------------------------------------
                                 ORCA GUESS
                   Start orbitals & Density for SCF / CASSCF
-------------------------------------------------------------------------------

------------
SCF SETTINGS
------------
Hamiltonian:
 Density Functional     Method          .... DFT(GTOs)
 Exchange Functional    Exchange        .... PBE
   PBE kappa parameter   XKappa         ....  0.804000
   PBE mue parameter    XMuePBE         ....  0.219520
 Correlation Functional Correlation     .... PBE
   PBE beta parameter  CBetaPBE         ....  0.066725
 LDA part of GGA corr.  LDAOpt          .... PW91-LDA
 Gradients option       PostSCFGGA      .... off
   NL short-range parameter             ....  6.400000
 RI-approximation to the Coulomb term is turned on
   Number of AuxJ basis functions       .... 360


General Settings:
 Integral files         IntName         .... benzene_opt
 Hartree-Fock type      HFTyp           .... RHF
 Total Charge           Charge          ....    0
 Multiplicity           Mult            ....    1
 Number of Electrons    NEL             ....   42
 Basis Dimension        Dim             ....  114
 Nuclear Repulsion      ENuc            ....    194.6322602409 Eh

Convergence Acceleration:
 AO-DIIS                CNVDIIS         .... on
   Start iteration      DIISMaxIt       ....    12
   Startup error        DIISStart       ....  0.200000
   # of expansion vecs  DIISMaxEq       ....     5
   Bias factor          DIISBfac        ....   1.050
   Max. coefficient     DIISMaxC        ....  10.000
 MO-DIIS                CNVKDIIS        .... off
 Trust-Rad. Augm. Hess. CNVTRAH         .... auto
   Auto Start mean grad. ratio tolernc. ....  1.125000
   Auto Start start iteration           ....    50
   Auto Start num. interpolation iter.  ....    10
   Max. Number of Micro iterations      ....    24
   Max. Number of Macro iterations      .... Maxiter - #DIIS iter
   Number of Davidson start vectors     ....     2
   Converg. threshold    (grad. norm)   ....   1.000e-05
   Grad. Scal. Fac. for Micro threshold ....   0.100
   Minimum threshold for Micro iter.    ....   1.000e-02
   NR start threshold (gradient norm)   ....   1.000e-04
   Initial trust radius                 ....   0.400
   Minimum AH scaling param. (alpha)    ....   1.000
   Maximum AH scaling param. (alpha)    .... 1000.000
   Quad. conv. algorithm                .... NR
   White noise on init. David. guess    .... on
   Maximum white noise                  ....   0.010
   Pseudo random numbers                .... off
   Inactive MOs                         .... canonical
   Orbital update algorithm             .... Taylor
   Preconditioner                       .... Diag
   Full preconditioner red. dimension   ....   250
 SOSCF                 CNVSOSCF           .... on
   Start iteration     SOSCFMaxIt         ....   150
   Startup grad/error  SOSCFStart         ....  0.003300
   Hessian update      SOSCFHessUp        .... L-BFGS
   Autom. constraints  SOSCFAutoConstrain .... off
 Level Shifting         CNVShift        .... on
   Level shift para.    LevelShift      ....    0.2500
   Turn off err/grad.   ShiftErr        ....    0.0010
 Zerner damping         CNVZerner       .... off
 Static damping         CNVDamp         .... on
   Fraction old density DampFac         ....    0.7000
   Max. Damping (<1)    DampMax         ....    0.9800
   Min. Damping (>=0)   DampMin         ....    0.0000
   Turn off err/grad.   DampErr         ....    0.1000

SCF Procedure:
 Maximum # iterations   MaxIter         ....   125
 SCF integral mode      SCFMode         .... Direct
   Integral package                     .... SHARK and LIBINT hybrid scheme
 Reset frequency        DirectResetFreq ....    20
 Integral Threshold     Thresh          ....  2.500e-11 Eh
 Primitive CutOff       TCut            ....  2.500e-12 Eh

Convergence Tolerance:
 Convergence Check Mode ConvCheckMode   .... Total+1el-Energy
 Convergence forced     ConvForced      .... 0
 Energy Change          TolE            ....  1.000e-08 Eh
 1-El. energy change                    ....  1.000e-05 Eh
 Orbital Gradient       TolG            ....  1.000e-05
 Orbital Rotation angle TolX            ....  1.000e-05
 DIIS Error             TolErr          ....  5.000e-07

------------------------------
INITIAL GUESS: MODEL POTENTIAL
------------------------------
Loading Hartree-Fock densities                     ... done
Calculating cut-offs                               ... done
Initializing the effective Hamiltonian             ... done
Setting up the integral package (SHARK)            ... done
Starting the Coulomb interaction                   ... done (   0.0 sec)
Making the grid                                    ... done (   0.0 sec)
Mapping shells                                     ... done
Starting the XC term evaluation                    ... done (   0.0 sec)
  promolecular density results
     # of electrons  =     41.995704448
     EX              =    -32.231313691
     EC              =     -1.343201346
     EX+EC           =    -33.574515037
Transforming the Hamiltonian                       ... done (   0.0 sec)
Diagonalizing the Hamiltonian                      ... done (   0.0 sec)
Back transforming the eigenvectors                 ... done (   0.0 sec)
Now organizing SCF variables                       ... done
                      ------------------
                      INITIAL GUESS DONE (   0.1 sec)
                      ------------------
             **** ENERGY FILE WAS UPDATED (benzene_opt.en.tmp) ****
Finished Guess after   0.1 sec
Maximum memory used throughout the entire GUESS-calculation: 9.6 MB

-------------------------------------------------------------------------------------------
                                      ORCA LEAN-SCF
                              memory conserving SCF solver
-------------------------------------------------------------------------------------------

----------------------------------------D-I-I-S--------------------------------------------
Iteration    Energy (Eh)           Delta-E    RMSDP     MaxDP     DIISErr   Damp  Time(sec)
-------------------------------------------------------------------------------------------
               ***  Starting incremental Fock matrix formation  ***
    1    -231.6067386283881433     0.00e+00  2.42e-03  2.62e-02  8.02e-02  0.700   0.2
Warning: op=0 Small HOMO/LUMO gap (   0.078) - skipping pre-diagonalization
         Will do a full diagonalization
    2    -231.6363862373835900    -2.96e-02  2.16e-03  2.51e-02  4.38e-02  0.700   0.2
                               ***Turning on AO-DIIS***
    3    -231.6486855485439946    -1.23e-02  9.23e-04  1.18e-02  1.82e-02  0.700   0.2
    4    -231.6557710537606454    -7.09e-03  1.39e-03  1.94e-02  9.28e-03  0.000   0.2
                              *** Initializing SOSCF ***
---------------------------------------S-O-S-C-F--------------------------------------
Iteration    Energy (Eh)           Delta-E    RMSDP     MaxDP     MaxGrad    Time(sec)
--------------------------------------------------------------------------------------
    5    -231.6711136386807652    -1.53e-02  3.20e-04  4.58e-03  3.08e-03     0.2
               *** Restarting incremental Fock matrix formation ***
    6    -231.6712278762532264    -1.14e-04  2.40e-04  3.12e-03  5.88e-04     0.2
    7    -231.6712343033669868    -6.43e-06  4.04e-05  4.77e-04  3.52e-04     0.2
    8    -231.6712366482564107    -2.34e-06  2.88e-05  2.65e-04  1.67e-04     0.2
    9    -231.6712370086223132    -3.60e-07  9.35e-06  1.08e-04  6.48e-05     0.2
   10    -231.6712371017402461    -9.31e-08  2.23e-06  2.61e-05  9.92e-06     0.2
   11    -231.6712371071981806    -5.46e-09  1.08e-06  1.89e-05  8.34e-06     0.2
                 **** Energy Check signals convergence ****

               *****************************************************
               *                     SUCCESS                       *
               *           SCF CONVERGED AFTER  11 CYCLES          *
               *****************************************************

             **** ENERGY FILE WAS UPDATED (benzene_opt.en.tmp) ****

----------------
TOTAL SCF ENERGY
----------------

Total Energy       :       -231.67123711118006 Eh           -6304.09486 eV

Components:
Nuclear Repulsion  :        194.63226024088550 Eh            5296.21306 eV
Electronic Energy  :       -426.30349735206556 Eh          -11600.30791 eV
One Electron Energy:       -696.47090067242766 Eh          -18951.93671 eV
Two Electron Energy:        270.16740332036210 Eh            7351.62879 eV

Virial components:
Potential Energy   :       -461.41142027838623 Eh          -12555.64306 eV
Kinetic Energy     :        229.74018316720614 Eh            6251.54821 eV
Virial Ratio       :          2.00840538175496

DFT components:
N(Alpha)           :       21.000007139320 electrons
N(Beta)            :       21.000007139320 electrons
N(Total)           :       42.000014278641 electrons
E(X)               :      -32.825094171100 Eh       
E(C)               :       -1.359707811304 Eh       
E(XC)              :      -34.184801982404 Eh       

---------------
SCF CONVERGENCE
---------------

  Last Energy change         ...    5.4579e-09  Tolerance :   1.0000e-08
  Last MAX-Density change    ...    1.8917e-05  Tolerance :   1.0000e-07
  Last RMS-Density change    ...    1.0850e-06  Tolerance :   5.0000e-09
  Last DIIS Error            ...    3.0827e-03  Tolerance :   5.0000e-07
  Last Orbital Gradient      ...    8.3412e-06  Tolerance :   1.0000e-05
  Last Orbital Rotation      ...    2.9627e-05  Tolerance :   1.0000e-05


----------------
ORBITAL ENERGIES
----------------

  NO   OCC          E(Eh)            E(eV) 
   0   2.0000      -9.922612      -270.0080 
   1   2.0000      -9.922607      -270.0079 
   2   2.0000      -9.922593      -270.0075 
   3   2.0000      -9.922554      -270.0064 
   4   2.0000      -9.922531      -270.0058 
   5   2.0000      -9.922476      -270.0043 
   6   2.0000      -0.743633       -20.2353 
   7   2.0000      -0.647867       -17.6294 
   8   2.0000      -0.647858       -17.6291 
   9   2.0000      -0.522885       -14.2284 
  10   2.0000      -0.522881       -14.2283 
  11   2.0000      -0.454534       -12.3685 
  12   2.0000      -0.452220       -12.3055 
  13   2.0000      -0.364209        -9.9106 
  14   2.0000      -0.364201        -9.9104 
  15   2.0000      -0.315139        -8.5754 
  16   2.0000      -0.315139        -8.5754 
  17   2.0000      -0.310324        -8.4444 
  18   2.0000      -0.294775        -8.0212 
  19   2.0000      -0.170752        -4.6464 
  20   2.0000      -0.170743        -4.6462 
  21   0.0000      -0.091665        -2.4943 
  22   0.0000      -0.091657        -2.4941 
  23   0.0000      -0.072210        -1.9649 
  24   0.0000       0.057498         1.5646 
  25   0.0000       0.088682         2.4132 
  26   0.0000       0.088685         2.4132 
  27   0.0000       0.110233         2.9996 
  28   0.0000       0.110238         2.9997 
  29   0.0000       0.127957         3.4819 
  30   0.0000       0.183137         4.9834 
  31   0.0000       0.183139         4.9835 
  32   0.0000       0.201802         5.4913 
  33   0.0000       0.203702         5.5430 
  34   0.0000       0.232857         6.3363 
  35   0.0000       0.232859         6.3364 
  36   0.0000       0.337156         9.1745 
  37   0.0000       0.417078        11.3493 
  38   0.0000       0.423699        11.5294 
  39   0.0000       0.454362        12.3638 
  40   0.0000       0.454363        12.3638 
  41   0.0000       0.466022        12.6811 
  42   0.0000       0.466024        12.6811 
  43   0.0000       0.482027        13.1166 
  44   0.0000       0.493149        13.4193 
  45   0.0000       0.493151        13.4193 
  46   0.0000       0.528075        14.3697 
  47   0.0000       0.528076        14.3697 
  48   0.0000       0.568852        15.4793 
  49   0.0000       0.568856        15.4794 
  50   0.0000       0.580151        15.7867 
  51   0.0000       0.606463        16.5027 
  52   0.0000       0.606466        16.5028 
  53   0.0000       0.619649        16.8615 
  54   0.0000       0.675406        18.3787 
  55   0.0000       0.677688        18.4408 
  56   0.0000       0.699015        19.0212 
  57   0.0000       0.699019        19.0213 
  58   0.0000       0.747796        20.3486 
  59   0.0000       0.819101        22.2889 
  60   0.0000       0.819103        22.2889 
  61   0.0000       0.939583        25.5674 
  62   0.0000       0.939587        25.5675 
  63   0.0000       0.972678        26.4679 
  64   0.0000       0.972681        26.4680 
  65   0.0000       0.978748        26.6331 
  66   0.0000       1.097931        29.8762 
  67   0.0000       1.108505        30.1639 
  68   0.0000       1.108512        30.1641 
  69   0.0000       1.144318        31.1385 
  70   0.0000       1.144319        31.1385 
  71   0.0000       1.157360        31.4934 
  72   0.0000       1.216808        33.1110 
  73   0.0000       1.327948        36.1353 
  74   0.0000       1.423116        38.7249 
  75   0.0000       1.423116        38.7250 
  76   0.0000       1.433759        39.0146 
  77   0.0000       1.433766        39.0147 
  78   0.0000       1.492842        40.6223 
  79   0.0000       1.492848        40.6225 
  80   0.0000       1.504255        40.9329 
  81   0.0000       1.527560        41.5670 
  82   0.0000       1.535488        41.7827 
  83   0.0000       1.575639        42.8753 
  84   0.0000       1.606469        43.7142 
  85   0.0000       1.606472        43.7143 
  86   0.0000       1.653457        44.9929 
  87   0.0000       1.653461        44.9930 
  88   0.0000       1.662657        45.2432 
  89   0.0000       1.662659        45.2433 
  90   0.0000       1.682499        45.7831 
  91   0.0000       1.683296        45.8048 
  92   0.0000       1.796257        48.8786 
  93   0.0000       1.842081        50.1256 
  94   0.0000       1.842087        50.1257 
  95   0.0000       1.849410        50.3250 
  96   0.0000       1.849415        50.3251 
  97   0.0000       1.907640        51.9095 
  98   0.0000       1.907643        51.9096 
  99   0.0000       1.987129        54.0725 
 100   0.0000       1.987129        54.0725 
 101   0.0000       2.008171        54.6451 
 102   0.0000       2.055460        55.9319 
 103   0.0000       2.179032        59.2945 
 104   0.0000       2.179037        59.2946 
 105   0.0000       2.230243        60.6880 
 106   0.0000       2.293493        62.4091 
 107   0.0000       2.293497        62.4092 
 108   0.0000       2.435650        66.2774 
 109   0.0000       2.435662        66.2777 
 110   0.0000       2.460731        66.9599 
 111   0.0000       2.735484        74.4363 
 112   0.0000       2.735484        74.4363 
 113   0.0000       2.747803        74.7715 
------------------------------
MOLECULAR ORBITALS (RHF, ROHF)
------------------------------
                      0         1         2         3         4         5   
                  -9.92261  -9.92261  -9.92259  -9.92255  -9.92253  -9.92248
                   2.00000   2.00000   2.00000   2.00000   2.00000   2.00000
                  --------  --------  --------  --------  --------  --------
  0C   1s        -0.000006  0.290050 -0.525910 -0.000010  0.651077  0.480932
  0C   2s        -0.000000  0.004510 -0.010755 -0.000000  0.013196  0.008566
  0C   3s        -0.000000  0.000881  0.012010  0.000000 -0.021193 -0.009881
  0C   1pz       -0.000000 -0.000028  0.000347  0.000000 -0.000442 -0.000453
  0C   1px       -0.000000  0.000731 -0.000578 -0.000000  0.000535  0.000626
  0C   1py        0.000333  0.000000  0.000000 -0.000116 -0.000000  0.000000
  0C   2pz        0.000000  0.000884 -0.003397 -0.000000  0.003889  0.001230
  0C   2px        0.000000 -0.000908 -0.003440 -0.000000  0.007204  0.000124
  0C   2py       -0.006030 -0.000000 -0.000000 -0.002658 -0.000000 -0.000000
  0C   1dz2       0.000000 -0.000482  0.000121  0.000000 -0.000430 -0.000693
  0C   1dxz       0.000000 -0.000624  0.000167  0.000000  0.000374  0.000731
  0C   1dyz      -0.000665 -0.000000 -0.000000 -0.000724 -0.000000 -0.000000
  0C   1dx2y2    -0.000000  0.001157 -0.000883 -0.000000  0.000692  0.000817
  0C   1dxy      -0.000406 -0.000000 -0.000000 -0.000890 -0.000000  0.000000
  1C   1s        -0.504272  0.459723 -0.340541 -0.504301 -0.205761 -0.371008
  1C   2s        -0.010174  0.008027 -0.006726 -0.010451 -0.004562 -0.006348
  1C   3s         0.011395 -0.005227  0.007571  0.018152  0.009649  0.007397
  1C   1pz       -0.000347  0.000153 -0.000250 -0.000370 -0.000188 -0.000378
  1C   1px       -0.000426  0.000404  0.000051 -0.000216  0.000071 -0.000283
  1C   1py       -0.000406  0.000739 -0.000483 -0.000258 -0.000074 -0.000418
  1C   2pz        0.003053 -0.001946  0.001848  0.003156  0.001472  0.000564
  1C   2px        0.001127  0.000215 -0.005317 -0.004287  0.000229  0.000831
  1C   2py       -0.004079  0.001265  0.001151 -0.004768 -0.004120  0.000125
  1C   1dz2       0.000179 -0.000578  0.000187  0.000284  0.000053  0.000654
  1C   1dxz      -0.000320  0.000346  0.000523  0.000525 -0.000361  0.000310
  1C   1dyz       0.000111  0.000356 -0.000236  0.000185  0.000606  0.000682
  1C   1dx2y2     0.000600 -0.000774 -0.000015 -0.000189  0.000643  0.000355
  1C   1dxy      -0.000633  0.001042 -0.000671 -0.000563  0.000399 -0.000526
  2C   1s        -0.504302  0.459723  0.340547  0.504288 -0.205712  0.371007
  2C   2s        -0.010174  0.008027  0.006726  0.010451 -0.004561  0.006348
  2C   3s         0.011396 -0.005227 -0.007571 -0.018152  0.009648 -0.007397
  2C   1pz        0.000348 -0.000153 -0.000250 -0.000370  0.000188 -0.000378
  2C   1px        0.000426 -0.000404  0.000051 -0.000216 -0.000071 -0.000283
  2C   1py       -0.000406  0.000739  0.000483  0.000258 -0.000074  0.000418
  2C   2pz       -0.003053  0.001946  0.001848  0.003155 -0.001472  0.000565
  2C   2px       -0.001126 -0.000214 -0.005317 -0.004287 -0.000229  0.000831
  2C   2py       -0.004079  0.001266 -0.001151  0.004768 -0.004120 -0.000125
  2C   1dz2       0.000179 -0.000578 -0.000187 -0.000284  0.000053 -0.000654
  2C   1dxz      -0.000320  0.000346 -0.000523 -0.000525 -0.000361 -0.000310
  2C   1dyz      -0.000111 -0.000356 -0.000236  0.000185 -0.000606  0.000682
  2C   1dx2y2     0.000600 -0.000774  0.000015  0.000189  0.000643 -0.000355
  2C   1dxy       0.000633 -0.001042 -0.000671 -0.000563 -0.000399 -0.000526
  3C   1s        -0.000035  0.290012  0.525897 -0.000020  0.651080 -0.480965
  3C   2s        -0.000001  0.004509  0.010754 -0.000000  0.013196 -0.008566
  3C   3s         0.000000  0.000882 -0.012009  0.000000 -0.021193  0.009882
  3C   1pz       -0.000000  0.000028  0.000347 -0.000000  0.000442 -0.000453
  3C   1px        0.000000 -0.000730 -0.000578  0.000000 -0.000535  0.000626
  3C   1py        0.000333  0.000000  0.000000  0.000116  0.000000  0.000000
  3C   2pz        0.000000 -0.000884 -0.003397  0.000000 -0.003890  0.001230
  3C   2px        0.000000  0.000908 -0.003440  0.000000 -0.007204  0.000124
  3C   2py       -0.006030 -0.000000 -0.000000  0.002658  0.000000 -0.000000
  3C   1dz2       0.000000 -0.000482 -0.000121  0.000000 -0.000430  0.000693
  3C   1dxz       0.000000 -0.000624 -0.000167  0.000000  0.000374 -0.000731
  3C   1dyz       0.000665  0.000000  0.000000 -0.000724 -0.000000  0.000000
  3C   1dx2y2    -0.000000  0.001157  0.000883 -0.000000  0.000692 -0.000817
  3C   1dxy       0.000406  0.000000  0.000000 -0.000890 -0.000000  0.000000
  4C   1s         0.504208  0.459781  0.340573 -0.504298 -0.205730  0.371015
  4C   2s         0.010173  0.008028  0.006727 -0.010451 -0.004561  0.006348
  4C   3s        -0.011395 -0.005228 -0.007571  0.018152  0.009648 -0.007398
  4C   1pz       -0.000347 -0.000153 -0.000250  0.000370  0.000188 -0.000378
  4C   1px       -0.000426 -0.000404  0.000051  0.000216 -0.000071 -0.000283
  4C   1py       -0.000406 -0.000739 -0.000483  0.000258  0.000074 -0.000418
  4C   2pz        0.003052  0.001946  0.001848 -0.003156 -0.001472  0.000565
  4C   2px        0.001127 -0.000214 -0.005317  0.004287 -0.000229  0.000831
  4C   2py       -0.004078 -0.001266  0.001151  0.004768  0.004120  0.000124
  4C   1dz2      -0.000179 -0.000578 -0.000187  0.000284  0.000053 -0.000654
  4C   1dxz       0.000320  0.000346 -0.000523  0.000525 -0.000361 -0.000310
  4C   1dyz      -0.000111  0.000356  0.000236  0.000185  0.000606 -0.000682
  4C   1dx2y2    -0.000600 -0.000774  0.000015 -0.000189  0.000643 -0.000355
  4C   1dxy       0.000633  0.001042  0.000671 -0.000563  0.000399  0.000526
  5C   1s         0.504229  0.459814 -0.340502  0.504295 -0.205747 -0.371006
  5C   2s         0.010173  0.008029 -0.006725  0.010451 -0.004561 -0.006348
  5C   3s        -0.011395 -0.005229  0.007570 -0.018152  0.009648  0.007397
  5C   1pz        0.000347  0.000153 -0.000250  0.000370 -0.000188 -0.000378
  5C   1px        0.000426  0.000404  0.000051  0.000216  0.000071 -0.000283
  5C   1py       -0.000406 -0.000739  0.000483 -0.000258  0.000074  0.000418
  5C   2pz       -0.003053 -0.001946  0.001848 -0.003156  0.001472  0.000564
  5C   2px       -0.001126  0.000214 -0.005317  0.004287  0.000229  0.000831
  5C   2py       -0.004078 -0.001266 -0.001152 -0.004768  0.004120 -0.000125
  5C   1dz2      -0.000179 -0.000578  0.000187 -0.000284  0.000053  0.000654
  5C   1dxz       0.000320  0.000346  0.000523 -0.000525 -0.000361  0.000310
  5C   1dyz       0.000111 -0.000356  0.000236  0.000185 -0.000606 -0.000682
  5C   1dx2y2    -0.000600 -0.000774 -0.000015  0.000189  0.000643  0.000355
  5C   1dxy      -0.000633 -0.001042  0.000671 -0.000563 -0.000399  0.000526
  6H   1s         0.000000 -0.001733  0.001827  0.000000 -0.002144 -0.001527
  6H   2s        -0.000000  0.000915  0.000253 -0.000000 -0.000575  0.001546
  6H   1pz       -0.000000  0.000159  0.000060 -0.000000 -0.000181 -0.000081
  6H   1px       -0.000000  0.001007 -0.001440 -0.000000  0.001696  0.001490
  6H   1py        0.000487  0.000000  0.000000  0.000400  0.000000  0.000000
  7H   1s         0.001736 -0.002247  0.001156  0.001530  0.000455  0.001148
  7H   2s         0.000049  0.000698 -0.000169  0.000643  0.000517 -0.001557
  7H   1pz       -0.000060 -0.000098 -0.000044 -0.000181 -0.000126 -0.000068
  7H   1px       -0.000911  0.000776 -0.000120 -0.000462 -0.000527 -0.000638
  7H   1py       -0.001090  0.001209 -0.001045 -0.001201 -0.000232 -0.000999
  8H   1s         0.001736 -0.002247 -0.001156 -0.001530  0.000455 -0.001148
  8H   2s         0.000049  0.000698  0.000169 -0.000643  0.000517  0.001557
  8H   1pz        0.000060  0.000098 -0.000044 -0.000181  0.000126 -0.000068
  8H   1px        0.000911 -0.000776 -0.000120 -0.000462  0.000526 -0.000638
  8H   1py       -0.001090  0.001209  0.001045  0.001201 -0.000232  0.000999
  9H   1s         0.000000 -0.001732 -0.001827  0.000000 -0.002144  0.001527
  9H   2s        -0.000000  0.000915 -0.000253 -0.000000 -0.000575 -0.001546
  9H   1pz        0.000000 -0.000159  0.000060 -0.000000  0.000181 -0.000081
  9H   1px        0.000000 -0.001007 -0.001440  0.000000 -0.001696  0.001490
  9H   1py        0.000487  0.000000  0.000000 -0.000400 -0.000000  0.000000
 10H   1s        -0.001736 -0.002248 -0.001156  0.001530  0.000455 -0.001148
 10H   2s        -0.000049  0.000698  0.000169  0.000643  0.000517  0.001557
 10H   1pz       -0.000060  0.000098 -0.000044  0.000181  0.000126 -0.000068
 10H   1px       -0.000911 -0.000776 -0.000120  0.000462  0.000527 -0.000638
 10H   1py       -0.001090 -0.001209 -0.001045  0.001201  0.000232 -0.000999
 11H   1s        -0.001736 -0.002248  0.001156 -0.001530  0.000455  0.001148
 11H   2s        -0.000049  0.000698 -0.000169 -0.000643  0.000517 -0.001557
 11H   1pz        0.000060 -0.000098 -0.000044  0.000181 -0.000126 -0.000068
 11H   1px        0.000911  0.000776 -0.000120  0.000462 -0.000527 -0.000638
 11H   1py       -0.001090 -0.001209  0.001045 -0.001201  0.000232  0.000999
                      6         7         8         9        10        11   
                  -0.74363  -0.64787  -0.64786  -0.52289  -0.52288  -0.45453
                   2.00000   2.00000   2.00000   2.00000   2.00000   2.00000
                  --------  --------  --------  --------  --------  --------
  0C   1s        -0.011781 -0.000001  0.014794  0.000000  0.008467  0.002694
  0C   2s         0.171499  0.000010 -0.242538 -0.000002 -0.209194 -0.013973
  0C   3s         0.107426  0.000008 -0.178746 -0.000002 -0.184953 -0.015282
  0C   1pz       -0.037195 -0.000002  0.046096  0.000000  0.006311 -0.036810
  0C   1px       -0.047007  0.000000 -0.002874 -0.000001 -0.101783 -0.193182
  0C   1py        0.000000 -0.098362 -0.000004  0.142253 -0.000001  0.000000
  0C   2pz       -0.013088 -0.000001  0.013251  0.000000  0.003774 -0.010226
  0C   2px       -0.014974 -0.000001  0.021425  0.000000  0.032453 -0.062801
  0C   2py        0.000000 -0.023524 -0.000001  0.055479 -0.000000 -0.000000
  0C   1dz2      -0.003442 -0.000000  0.001991 -0.000000 -0.002737 -0.000820
  0C   1dxz       0.005553  0.000000 -0.003267 -0.000000 -0.000345  0.005963
  0C   1dyz      -0.000000  0.008299  0.000000 -0.011928  0.000000  0.000000
  0C   1dx2y2    -0.003612 -0.000000  0.006937 -0.000000 -0.004748  0.009852
  0C   1dxy      -0.000000  0.009841  0.000000 -0.004794  0.000000 -0.000000
  1C   1s        -0.011780  0.012812  0.007398 -0.007333 -0.004234  0.002694
  1C   2s         0.171509 -0.210041 -0.121283  0.181164  0.104589 -0.013952
  1C   3s         0.107419 -0.154793 -0.089376  0.160178  0.092476 -0.015266
  1C   1pz        0.037194 -0.039917 -0.023046  0.005458  0.003151  0.036814
  1C   1px       -0.023506  0.041352 -0.074491  0.105676 -0.081241 -0.096601
  1C   1py       -0.040706 -0.026752  0.041344  0.040788  0.105689 -0.167291
  1C   2pz        0.013082 -0.011472 -0.006622  0.003267  0.001886  0.010228
  1C   2px       -0.007486  0.019464 -0.012289  0.009971 -0.049724 -0.031404
  1C   2py       -0.012958  0.010179  0.019460 -0.038210  0.009981 -0.054386
  1C   1dz2      -0.003442  0.001725  0.000996  0.002370  0.001368 -0.000820
  1C   1dxz      -0.002777  0.005008 -0.005407  0.005016 -0.009032 -0.002982
  1C   1dyz      -0.004809  0.000375  0.005008 -0.003240  0.005016 -0.005164
  1C   1dx2y2     0.001806 -0.007264  0.005646 -0.004132  0.002408 -0.004926
  1C   1dxy      -0.003128  0.002741  0.007264  0.002363  0.004132  0.008532
  2C   1s        -0.011780  0.012813 -0.007396  0.007333 -0.004234  0.002694
  2C   2s         0.171509 -0.210051  0.121265 -0.181162  0.104593 -0.013952
  2C   3s         0.107419 -0.154801  0.089362 -0.160176  0.092479 -0.015266
  2C   1pz       -0.037194  0.039919 -0.023043  0.005458 -0.003151 -0.036814
  2C   1px        0.023506 -0.041346 -0.074494  0.105678  0.081240  0.096601
  2C   1py       -0.040706 -0.026748 -0.041346 -0.040786  0.105690 -0.167291
  2C   2pz       -0.013082  0.011473 -0.006621  0.003267 -0.001886 -0.010228
  2C   2px        0.007486 -0.019463 -0.012291  0.009972  0.049723  0.031404
  2C   2py       -0.012958  0.010180 -0.019459  0.038210  0.009980 -0.054386
  2C   1dz2      -0.003442  0.001725 -0.000995 -0.002370  0.001368 -0.000820
  2C   1dxz      -0.002777  0.005008  0.005408 -0.005016 -0.009032 -0.002982
  2C   1dyz       0.004809 -0.000375  0.005008 -0.003240 -0.005016  0.005164
  2C   1dx2y2     0.001806 -0.007264 -0.005646  0.004132  0.002408 -0.004926
  2C   1dxy       0.003128 -0.002742  0.007264  0.002363 -0.004132 -0.008532
  3C   1s        -0.011781  0.000001 -0.014794  0.000000  0.008467  0.002694
  3C   2s         0.171499 -0.000010  0.242538 -0.000002 -0.209194 -0.013973
  3C   3s         0.107426 -0.000008  0.178746 -0.000002 -0.184953 -0.015282
  3C   1pz        0.037195 -0.000002  0.046096 -0.000000 -0.006311  0.036810
  3C   1px        0.047007  0.000000 -0.002874  0.000001  0.101783  0.193182
  3C   1py        0.000000 -0.098362 -0.000004 -0.142253  0.000001  0.000000
  3C   2pz        0.013088 -0.000001  0.013251 -0.000000 -0.003774  0.010226
  3C   2px        0.014974 -0.000001  0.021425 -0.000000 -0.032453  0.062801
  3C   2py       -0.000000 -0.023524 -0.000001 -0.055479  0.000000 -0.000000
  3C   1dz2      -0.003442  0.000000 -0.001991 -0.000000 -0.002737 -0.000820
  3C   1dxz       0.005553 -0.000000  0.003267 -0.000000 -0.000345  0.005963
  3C   1dyz       0.000000 -0.008299 -0.000000 -0.011928  0.000000  0.000000
  3C   1dx2y2    -0.003612  0.000000 -0.006937 -0.000000 -0.004748  0.009852
  3C   1dxy       0.000000 -0.009841 -0.000000 -0.004794  0.000000 -0.000000
  4C   1s        -0.011780 -0.012812 -0.007398 -0.007333 -0.004234  0.002694
  4C   2s         0.171509  0.210041  0.121283  0.181164  0.104589 -0.013952
  4C   3s         0.107419  0.154793  0.089376  0.160178  0.092476 -0.015266
  4C   1pz       -0.037194 -0.039917 -0.023046 -0.005458 -0.003151 -0.036814
  4C   1px        0.023506  0.041352 -0.074491 -0.105676  0.081241  0.096601
  4C   1py        0.040706 -0.026752  0.041344 -0.040788 -0.105689  0.167291
  4C   2pz       -0.013082 -0.011472 -0.006622 -0.003267 -0.001886 -0.010228
  4C   2px        0.007486  0.019464 -0.012289 -0.009971  0.049724  0.031404
  4C   2py        0.012958  0.010179  0.019460  0.038210 -0.009981  0.054386
  4C   1dz2      -0.003442 -0.001725 -0.000996  0.002370  0.001368 -0.000820
  4C   1dxz      -0.002777 -0.005008  0.005407  0.005016 -0.009032 -0.002982
  4C   1dyz      -0.004809 -0.000375 -0.005008 -0.003240  0.005016 -0.005164
  4C   1dx2y2     0.001806  0.007264 -0.005646 -0.004132  0.002408 -0.004926
  4C   1dxy      -0.003128 -0.002741 -0.007264  0.002363  0.004132  0.008532
  5C   1s        -0.011780 -0.012813  0.007396  0.007333 -0.004234  0.002694
  5C   2s         0.171509  0.210051 -0.121265 -0.181162  0.104593 -0.013952
  5C   3s         0.107419  0.154801 -0.089362 -0.160176  0.092479 -0.015266
  5C   1pz        0.037194  0.039919 -0.023043 -0.005458  0.003151  0.036814
  5C   1px       -0.023506 -0.041346 -0.074494 -0.105678 -0.081240 -0.096601
  5C   1py        0.040706 -0.026748 -0.041346  0.040786 -0.105690  0.167291
  5C   2pz        0.013082  0.011473 -0.006621 -0.003267  0.001886  0.010228
  5C   2px       -0.007486 -0.019463 -0.012291 -0.009972 -0.049723 -0.031404
  5C   2py        0.012958  0.010180 -0.019459 -0.038210 -0.009980  0.054386
  5C   1dz2      -0.003442 -0.001725  0.000995 -0.002370  0.001368 -0.000820
  5C   1dxz      -0.002777 -0.005008 -0.005408 -0.005016 -0.009032 -0.002982
  5C   1dyz       0.004809  0.000375 -0.005008 -0.003240 -0.005016  0.005164
  5C   1dx2y2     0.001806  0.007264  0.005646  0.004132  0.002408 -0.004926
  5C   1dxy       0.003128  0.002742 -0.007264  0.002363 -0.004132 -0.008532
  6H   1s         0.053992  0.000005 -0.120358 -0.000002 -0.188542 -0.148040
  6H   2s         0.004736  0.000001 -0.021397 -0.000001 -0.062441 -0.040860
  6H   1pz       -0.001570 -0.000000  0.002542  0.000000  0.001962  0.000769
  6H   1px       -0.008586 -0.000001  0.015195  0.000000  0.016148  0.010690
  6H   1py       -0.000000 -0.002831 -0.000000  0.002641 -0.000000  0.000000
  7H   1s         0.053996 -0.104233 -0.060190  0.163295  0.094279 -0.148031
  7H   2s         0.004733 -0.018528 -0.010700  0.054084  0.031222 -0.040861
  7H   1pz        0.001570 -0.002201 -0.001271  0.001699  0.000981 -0.000769
  7H   1px       -0.004293  0.007805  0.001676 -0.005849 -0.006018  0.005344
  7H   1py       -0.007436  0.010688  0.007806 -0.012772 -0.005849  0.009257
  8H   1s         0.053996 -0.104238  0.060181 -0.163293  0.094282 -0.148031
  8H   2s         0.004733 -0.018529  0.010698 -0.054083  0.031223 -0.040861
  8H   1pz       -0.001570  0.002201 -0.001271  0.001699 -0.000981  0.000769
  8H   1px        0.004293 -0.007805  0.001676 -0.005849  0.006018 -0.005344
  8H   1py       -0.007436  0.010689 -0.007805  0.012772 -0.005849  0.009257
  9H   1s         0.053992 -0.000005  0.120358 -0.000002 -0.188542 -0.148040
  9H   2s         0.004736 -0.000001  0.021397 -0.000001 -0.062441 -0.040860
  9H   1pz        0.001570 -0.000000  0.002542 -0.000000 -0.001962 -0.000769
  9H   1px        0.008586 -0.000001  0.015195 -0.000000 -0.016148 -0.010690
  9H   1py        0.000000 -0.002831 -0.000000 -0.002641  0.000000 -0.000000
 10H   1s         0.053996  0.104233  0.060190  0.163295  0.094279 -0.148031
 10H   2s         0.004733  0.018528  0.010700  0.054084  0.031222 -0.040861
 10H   1pz       -0.001570 -0.002201 -0.001271 -0.001699 -0.000981  0.000769
 10H   1px        0.004293  0.007805  0.001676  0.005849  0.006018 -0.005344
 10H   1py        0.007436  0.010688  0.007806  0.012772  0.005849 -0.009257
 11H   1s         0.053996  0.104238 -0.060181 -0.163293  0.094282 -0.148031
 11H   2s         0.004733  0.018529 -0.010698 -0.054083  0.031223 -0.040861
 11H   1pz        0.001570  0.002201 -0.001271 -0.001699  0.000981 -0.000769
 11H   1px       -0.004293 -0.007805  0.001676  0.005849 -0.006018  0.005344
 11H   1py        0.007436  0.010689 -0.007805 -0.012772  0.005849 -0.009257
                     12        13        14        15        16        17   
                  -0.45222  -0.36421  -0.36420  -0.31514  -0.31514  -0.31032
                   2.00000   2.00000   2.00000   2.00000   2.00000   2.00000
                  --------  --------  --------  --------  --------  --------
  0C   1s        -0.001204 -0.000000  0.003265 -0.002948  0.000000  0.000000
  0C   2s         0.142437 -0.000001  0.048930  0.005343 -0.000001  0.000000
  0C   3s         0.117971 -0.000001  0.082802  0.013413 -0.000002 -0.000000
  0C   1pz        0.062199  0.000002 -0.110426  0.198985 -0.000023 -0.000000
  0C   1px        0.101361  0.000005 -0.280754  0.121590 -0.000014 -0.000000
  0C   1py        0.000000  0.101985  0.000002  0.000031  0.266450 -0.273609
  0C   2pz        0.024017  0.000001 -0.045512  0.096790 -0.000011 -0.000000
  0C   2px        0.009913  0.000001 -0.084296  0.001451 -0.000000  0.000000
  0C   2py        0.000000  0.014546  0.000000  0.000013  0.107868 -0.126295
  0C   1dz2       0.000187 -0.000000  0.004272 -0.010972  0.000001  0.000000
  0C   1dxz      -0.002079 -0.000000  0.005712  0.000197 -0.000000 -0.000000
  0C   1dyz      -0.000000  0.001333  0.000000 -0.000000 -0.001533  0.013677
  0C   1dx2y2     0.011156  0.000000 -0.004095  0.014927 -0.000002 -0.000000
  0C   1dxy       0.000000 -0.017468 -0.000000 -0.000001 -0.008728 -0.003580
  1C   1s         0.001203  0.002827  0.001632  0.001474  0.002551  0.000000
  1C   2s        -0.142424  0.042381  0.024476 -0.002673 -0.004627 -0.000003
  1C   3s        -0.117954  0.071712  0.041407 -0.006708 -0.011595 -0.000006
  1C   1pz        0.062207  0.095624  0.055204  0.099508  0.172317 -0.000004
  1C   1px       -0.050685 -0.165740  0.006305 -0.230220  0.062757 -0.236941
  1C   1py       -0.087801 -0.185057 -0.165733  0.062711 -0.157801  0.136805
  1C   2pz        0.024022  0.039412  0.022750  0.048404  0.083827 -0.000004
  1C   2px       -0.004962 -0.042804 -0.010157 -0.081267  0.046091 -0.109379
  1C   2py       -0.008591 -0.059581 -0.042799  0.046083 -0.028069  0.063159
  1C   1dz2      -0.000186  0.003699  0.002135  0.005487  0.009501 -0.000000
  1C   1dxz      -0.001040 -0.001897 -0.002427 -0.001101  0.000750 -0.011845
  1C   1dyz      -0.001801 -0.004617 -0.001896  0.000750 -0.000237  0.006839
  1C   1dx2y2     0.005577  0.009336 -0.012077  0.010279  0.002682 -0.003100
  1C   1dxy      -0.009662  0.001297 -0.009336 -0.002685 -0.013377 -0.001789
  2C   1s        -0.001203  0.002827 -0.001632  0.001473 -0.002551  0.000000
  2C   2s         0.142424  0.042382 -0.024474 -0.002672  0.004627 -0.000003
  2C   3s         0.117954  0.071713 -0.041405 -0.006705  0.011596 -0.000006
  2C   1pz        0.062207 -0.095626  0.055201 -0.099468  0.172340  0.000004
  2C   1px       -0.050685  0.165740  0.006310  0.230235  0.062704  0.236941
  2C   1py        0.087801 -0.185063  0.165727  0.062748  0.157786  0.136805
  2C   2pz        0.024022 -0.039413  0.022749 -0.048384  0.083838  0.000004
  2C   2px       -0.004962  0.042805 -0.010156  0.081278  0.046072  0.109379
  2C   2py        0.008591 -0.059582  0.042797  0.046089  0.028058  0.063159
  2C   1dz2       0.000186  0.003699 -0.002135  0.005485 -0.009502 -0.000000
  2C   1dxz       0.001040 -0.001897  0.002427 -0.001102 -0.000749 -0.011845
  2C   1dyz      -0.001801  0.004617 -0.001896 -0.000750 -0.000236 -0.006839
  2C   1dx2y2    -0.005577  0.009336  0.012078  0.010278 -0.002685 -0.003100
  2C   1dxy      -0.009662 -0.001296 -0.009336  0.002682 -0.013377  0.001789
  3C   1s         0.001204  0.000000 -0.003265 -0.002948  0.000000  0.000000
  3C   2s        -0.142437  0.000001 -0.048930  0.005343 -0.000001 -0.000000
  3C   3s        -0.117971  0.000001 -0.082802  0.013413 -0.000002 -0.000000
  3C   1pz        0.062199  0.000002 -0.110426 -0.198985  0.000023  0.000000
  3C   1px        0.101361  0.000005 -0.280754 -0.121590  0.000014  0.000000
  3C   1py       -0.000000  0.101985  0.000002 -0.000031 -0.266450 -0.273609
  3C   2pz        0.024017  0.000001 -0.045512 -0.096790  0.000011  0.000000
  3C   2px        0.009913  0.000001 -0.084296 -0.001451  0.000000  0.000000
  3C   2py        0.000000  0.014546  0.000000 -0.000013 -0.107868 -0.126295
  3C   1dz2      -0.000187  0.000000 -0.004272 -0.010972  0.000001  0.000000
  3C   1dxz       0.002079  0.000000 -0.005712  0.000197 -0.000000  0.000000
  3C   1dyz       0.000000 -0.001333 -0.000000 -0.000000 -0.001533 -0.013677
  3C   1dx2y2    -0.011156 -0.000000  0.004095  0.014927 -0.000002 -0.000000
  3C   1dxy       0.000000  0.017468  0.000000 -0.000001 -0.008728  0.003580
  4C   1s        -0.001203 -0.002827 -0.001632  0.001474  0.002551 -0.000000
  4C   2s         0.142424 -0.042381 -0.024476 -0.002673 -0.004627  0.000003
  4C   3s         0.117954 -0.071712 -0.041407 -0.006708 -0.011595  0.000006
  4C   1pz        0.062207  0.095624  0.055204 -0.099508 -0.172317 -0.000004
  4C   1px       -0.050685 -0.165740  0.006305  0.230220 -0.062757 -0.236941
  4C   1py       -0.087801 -0.185057 -0.165733 -0.062711  0.157801  0.136805
  4C   2pz        0.024022  0.039412  0.022750 -0.048404 -0.083827 -0.000004
  4C   2px       -0.004962 -0.042804 -0.010157  0.081267 -0.046091 -0.109379
  4C   2py       -0.008591 -0.059581 -0.042799 -0.046083  0.028069  0.063159
  4C   1dz2       0.000186 -0.003699 -0.002135  0.005487  0.009501  0.000000
  4C   1dxz       0.001040  0.001897  0.002427 -0.001101  0.000750  0.011845
  4C   1dyz       0.001801  0.004617  0.001896  0.000750 -0.000237 -0.006839
  4C   1dx2y2    -0.005577 -0.009336  0.012077  0.010279  0.002682  0.003100
  4C   1dxy       0.009662 -0.001297  0.009336 -0.002685 -0.013377  0.001789
  5C   1s         0.001203 -0.002827  0.001632  0.001473 -0.002551 -0.000000
  5C   2s        -0.142424 -0.042382  0.024474 -0.002672  0.004627  0.000003
  5C   3s        -0.117954 -0.071713  0.041405 -0.006705  0.011596  0.000006
  5C   1pz        0.062207 -0.095626  0.055201  0.099468 -0.172340  0.000004
  5C   1px       -0.050685  0.165740  0.006310 -0.230235 -0.062704  0.236941
  5C   1py        0.087801 -0.185063  0.165727 -0.062748 -0.157786  0.136805
  5C   2pz        0.024022 -0.039413  0.022749  0.048384 -0.083838  0.000004
  5C   2px       -0.004962  0.042805 -0.010156 -0.081278 -0.046072  0.109379
  5C   2py        0.008591 -0.059582  0.042797 -0.046089 -0.028058  0.063159
  5C   1dz2      -0.000186 -0.003699  0.002135  0.005485 -0.009502  0.000000
  5C   1dxz      -0.001040  0.001897 -0.002427 -0.001102 -0.000749  0.011845
  5C   1dyz       0.001801 -0.004617  0.001896 -0.000750 -0.000236  0.006839
  5C   1dx2y2     0.005577 -0.009336 -0.012078  0.010278 -0.002685  0.003100
  5C   1dxy       0.009662  0.001296  0.009336  0.002682 -0.013377 -0.001789
  6H   1s         0.168440  0.000004 -0.217572  0.150387 -0.000017 -0.000000
  6H   2s         0.055283  0.000002 -0.102373  0.094603 -0.000011 -0.000000
  6H   1pz        0.000416  0.000000 -0.001530  0.005979 -0.000001 -0.000000
  6H   1px       -0.012074 -0.000000  0.009372 -0.004602  0.000001  0.000000
  6H   1py       -0.000000  0.004424  0.000000  0.000001  0.008514 -0.008079
  7H   1s        -0.168451 -0.188415 -0.108779 -0.075204 -0.130218  0.000003
  7H   2s        -0.055290 -0.088655 -0.051189 -0.047308 -0.081915 -0.000002
  7H   1pz        0.000416  0.001325  0.000765  0.002990  0.005177 -0.000000
  7H   1px        0.006037  0.002142  0.005660 -0.005234  0.005680 -0.006995
  7H   1py        0.010456  0.008135  0.002142  0.005679  0.001322  0.004039
  8H   1s         0.168452 -0.188419  0.108773 -0.075174  0.130236  0.000003
  8H   2s         0.055290 -0.088656  0.051186 -0.047289  0.081926 -0.000002
  8H   1pz        0.000416 -0.001325  0.000765 -0.002989  0.005178  0.000000
  8H   1px        0.006037 -0.002142  0.005660  0.005236  0.005678  0.006995
  8H   1py       -0.010456  0.008135 -0.002142  0.005679 -0.001323  0.004039
  9H   1s        -0.168440 -0.000004  0.217572  0.150387 -0.000017 -0.000000
  9H   2s        -0.055283 -0.000002  0.102373  0.094603 -0.000011 -0.000000
  9H   1pz        0.000416  0.000000 -0.001530 -0.005979  0.000001  0.000000
  9H   1px       -0.012074 -0.000000  0.009372  0.004602 -0.000001 -0.000000
  9H   1py        0.000000  0.004424  0.000000 -0.000001 -0.008514 -0.008079
 10H   1s         0.168452  0.188415  0.108779 -0.075204 -0.130218 -0.000003
 10H   2s         0.055290  0.088655  0.051189 -0.047308 -0.081915  0.000002
 10H   1pz        0.000416  0.001325  0.000765 -0.002990 -0.005177 -0.000000
 10H   1px        0.006037  0.002142  0.005660  0.005234 -0.005680 -0.006995
 10H   1py        0.010456  0.008135  0.002142 -0.005679 -0.001322  0.004039
 11H   1s        -0.168451  0.188419 -0.108773 -0.075174  0.130236 -0.000003
 11H   2s        -0.055290  0.088656 -0.051186 -0.047289  0.081926  0.000002
 11H   1pz        0.000416 -0.001325  0.000765  0.002989 -0.005178  0.000000
 11H   1px        0.006037 -0.002142  0.005660 -0.005236 -0.005678  0.006995
 11H   1py       -0.010456  0.008135 -0.002142 -0.005679  0.001323  0.004039
                     18        19        20        21        22        23   
                  -0.29477  -0.17075  -0.17074  -0.09167  -0.09166  -0.07221
                   2.00000   2.00000   2.00000   0.00000   0.00000   0.00000
                  --------  --------  --------  --------  --------  --------
  0C   1s         0.002083  0.000000  0.006884 -0.000000 -0.002575  0.008637
  0C   2s        -0.017383  0.000005  0.120251  0.000001  0.084561  0.023944
  0C   3s        -0.052240  0.000006  0.151070  0.000003  0.272732 -0.047707
  0C   1pz       -0.185229  0.000009  0.240350  0.000003  0.332956 -0.255686
  0C   1px        0.114444 -0.000008 -0.212290 -0.000001 -0.127275  0.033423
  0C   1py        0.000000  0.113136 -0.000004  0.112938 -0.000001 -0.000000
  0C   2pz       -0.114419  0.000009  0.225972  0.000003  0.309572 -0.291852
  0C   2px        0.057079 -0.000002 -0.042000 -0.000001 -0.103361  0.075085
  0C   2py        0.000000  0.069605 -0.000003  0.108853 -0.000001 -0.000000
  0C   1dz2       0.012764 -0.000000 -0.003686  0.000000  0.007988 -0.013355
  0C   1dxz       0.008986 -0.000000 -0.003444  0.000000  0.013457 -0.003908
  0C   1dyz      -0.000000 -0.018129  0.000001  0.017129 -0.000000  0.000000
[...]
  7H   1pz        0.000012 -0.000007 -0.000002 -0.000119  0.000070  0.000115
  7H   1px       -0.386075  0.231531 -0.444717 -0.248082  0.364596  0.307549
  7H   1py        0.362046  0.401216  0.256605 -0.651197  0.248055  0.532667
  8H   1s         0.064891  0.184893 -0.000152 -0.944888 -0.545568  0.960913
  8H   2s         0.011014 -0.898045 -0.000027 -0.253470 -0.146346 -0.038114
  8H   1pz        0.000012 -0.000007 -0.000002 -0.000119 -0.000070  0.000115
  8H   1px       -0.386299  0.231529 -0.444717 -0.248037 -0.364627  0.307549
  8H   1py       -0.362027 -0.401217 -0.256605  0.651167  0.248135 -0.532667
  9H   1s         0.129921 -0.184907  0.000000 -0.000067  1.091156 -0.961014
  9H   2s         0.021693  0.898170 -0.000001 -0.000018  0.292710  0.038114
  9H   1pz       -0.000027 -0.000011 -0.000000  0.000000 -0.000133  0.000111
  9H   1px        0.241080 -0.463248  0.000000 -0.000049  0.794427 -0.615138
  9H   1py       -0.000184 -0.000001 -0.513517 -0.221250 -0.000014 -0.000000
 10H   1s         0.064961  0.184893  0.000152  0.944955 -0.545451  0.960913
 10H   2s         0.011026 -0.898045  0.000029  0.253488 -0.146315 -0.038114
 10H   1pz        0.000012 -0.000007  0.000002  0.000119 -0.000070  0.000115
 10H   1px       -0.386075  0.231531  0.444717  0.248082 -0.364597  0.307549
 10H   1py        0.362046  0.401216 -0.256605  0.651197 -0.248055  0.532667
 11H   1s        -0.064891 -0.184893 -0.000152 -0.944888 -0.545568 -0.960913
 11H   2s        -0.011014  0.898045 -0.000029 -0.253470 -0.146347  0.038114
 11H   1pz        0.000012 -0.000007  0.000002  0.000119  0.000070  0.000115
 11H   1px       -0.386298  0.231530  0.444717  0.248037  0.364627  0.307549
 11H   1py       -0.362027 -0.401216  0.256605 -0.651167 -0.248135 -0.532667



                    ********************************
                    * MULLIKEN POPULATION ANALYSIS *
                    ********************************

-----------------------
MULLIKEN ATOMIC CHARGES
-----------------------
   0 C :    0.019591
   1 C :    0.019615
   2 C :    0.019615
   3 C :    0.019591
   4 C :    0.019615
   5 C :    0.019615
   6 H :   -0.019609
   7 H :   -0.019606
   8 H :   -0.019606
   9 H :   -0.019609
  10 H :   -0.019606
  11 H :   -0.019606
Sum of atomic charges:   -0.0000000

--------------------------------
MULLIKEN REDUCED ORBITAL CHARGES
--------------------------------
  0 C s       :     3.137291  s :     3.137291
      pz      :     0.977586  p :     2.781915
      px      :     0.838103
      py      :     0.966226
      dz2     :     0.002820  d :     0.061203
      dxz     :     0.003660
      dyz     :     0.012460
      dx2y2   :     0.025603
      dxy     :     0.016660

  1 C s       :     3.137283  s :     3.137283
      pz      :     0.977561  p :     2.781899
      px      :     0.934188
      py      :     0.870150
      dz2     :     0.002820  d :     0.061203
      dxz     :     0.010260
      dyz     :     0.005860
      dx2y2   :     0.018897
      dxy     :     0.023367

  2 C s       :     3.137283  s :     3.137283
      pz      :     0.977561  p :     2.781899
      px      :     0.934188
      py      :     0.870150
      dz2     :     0.002820  d :     0.061203
      dxz     :     0.010260
      dyz     :     0.005860
      dx2y2   :     0.018897
      dxy     :     0.023367

  3 C s       :     3.137291  s :     3.137291
      pz      :     0.977586  p :     2.781914
      px      :     0.838102
      py      :     0.966226
      dz2     :     0.002820  d :     0.061203
      dxz     :     0.003660
      dyz     :     0.012460
      dx2y2   :     0.025603
      dxy     :     0.016660

  4 C s       :     3.137283  s :     3.137283
      pz      :     0.977561  p :     2.781899
      px      :     0.934188
      py      :     0.870150
      dz2     :     0.002820  d :     0.061203
      dxz     :     0.010260
      dyz     :     0.005860
      dx2y2   :     0.018897
      dxy     :     0.023367

  5 C s       :     3.137283  s :     3.137283
      pz      :     0.977561  p :     2.781899
      px      :     0.934188
      py      :     0.870150
      dz2     :     0.002820  d :     0.061203
      dxz     :     0.010260
      dyz     :     0.005860
      dx2y2   :     0.018897
      dxy     :     0.023367

  6 H s       :     0.991421  s :     0.991421
      pz      :     0.006311  p :     0.028187
      px      :     0.017449
      py      :     0.004428

  7 H s       :     0.991419  s :     0.991419
      pz      :     0.006311  p :     0.028187
      px      :     0.007683
      py      :     0.014194

  8 H s       :     0.991419  s :     0.991419
      pz      :     0.006311  p :     0.028187
      px      :     0.007683
      py      :     0.014194

  9 H s       :     0.991421  s :     0.991421
      pz      :     0.006311  p :     0.028187
      px      :     0.017449
      py      :     0.004428

 10 H s       :     0.991419  s :     0.991419
      pz      :     0.006311  p :     0.028187
      px      :     0.007683
      py      :     0.014194

 11 H s       :     0.991419  s :     0.991419
      pz      :     0.006311  p :     0.028187
      px      :     0.007683
      py      :     0.014194



                     *******************************
                     * LOEWDIN POPULATION ANALYSIS *
                     *******************************

----------------------
LOEWDIN ATOMIC CHARGES
----------------------
   0 C :   -0.030418
   1 C :   -0.030382
   2 C :   -0.030382
   3 C :   -0.030418
   4 C :   -0.030382
   5 C :   -0.030382
   6 H :    0.030396
   7 H :    0.030393
   8 H :    0.030393
   9 H :    0.030396
  10 H :    0.030393
  11 H :    0.030393

-------------------------------
LOEWDIN REDUCED ORBITAL CHARGES
-------------------------------
  0 C s       :     2.827454  s :     2.827454
      pz      :     0.943631  p :     3.009980
      px      :     1.014139
      py      :     1.052211
      dz2     :     0.012364  d :     0.192985
      dxz     :     0.007114
      dyz     :     0.031948
      dx2y2   :     0.082060
      dxy     :     0.059499

  1 C s       :     2.827454  s :     2.827454
      pz      :     0.943615  p :     3.009946
      px      :     1.042681
      py      :     1.023650
      dz2     :     0.012363  d :     0.192982
      dxz     :     0.025739
      dyz     :     0.013323
      dx2y2   :     0.065139
      dxy     :     0.076418

  2 C s       :     2.827454  s :     2.827454
      pz      :     0.943615  p :     3.009946
      px      :     1.042681
      py      :     1.023650
      dz2     :     0.012363  d :     0.192982
      dxz     :     0.025739
      dyz     :     0.013323
      dx2y2   :     0.065139
      dxy     :     0.076418

  3 C s       :     2.827454  s :     2.827454
      pz      :     0.943631  p :     3.009980
      px      :     1.014139
      py      :     1.052211
      dz2     :     0.012364  d :     0.192985
      dxz     :     0.007114
      dyz     :     0.031948
      dx2y2   :     0.082060
      dxy     :     0.059499

  4 C s       :     2.827454  s :     2.827454
      pz      :     0.943615  p :     3.009946
      px      :     1.042681
      py      :     1.023650
      dz2     :     0.012363  d :     0.192982
      dxz     :     0.025739
      dyz     :     0.013323
      dx2y2   :     0.065139
      dxy     :     0.076418

  5 C s       :     2.827454  s :     2.827454
      pz      :     0.943615  p :     3.009946
      px      :     1.042681
      py      :     1.023650
      dz2     :     0.012363  d :     0.192982
      dxz     :     0.025739
      dyz     :     0.013323
      dx2y2   :     0.065139
      dxy     :     0.076418

  6 H s       :     0.890702  s :     0.890702
      pz      :     0.017318  p :     0.078902
      px      :     0.046925
      py      :     0.014658

  7 H s       :     0.890708  s :     0.890708
      pz      :     0.017318  p :     0.078899
      px      :     0.022724
      py      :     0.038857

  8 H s       :     0.890708  s :     0.890708
      pz      :     0.017318  p :     0.078899
      px      :     0.022724
      py      :     0.038857

  9 H s       :     0.890702  s :     0.890702
      pz      :     0.017318  p :     0.078902
      px      :     0.046925
      py      :     0.014658

 10 H s       :     0.890708  s :     0.890708
      pz      :     0.017318  p :     0.078899
      px      :     0.022724
      py      :     0.038857

 11 H s       :     0.890708  s :     0.890708
      pz      :     0.017318  p :     0.078899
      px      :     0.022724
      py      :     0.038857



                      *****************************
                      * MAYER POPULATION ANALYSIS *
                      *****************************

  NA   - Mulliken gross atomic population
  ZA   - Total nuclear charge
  QA   - Mulliken gross atomic charge
  VA   - Mayer's total valence
  BVA  - Mayer's bonded valence
  FA   - Mayer's free valence

  ATOM       NA         ZA         QA         VA         BVA        FA
  0 C      5.9804     6.0000     0.0196     3.9973     3.9973    -0.0000
  1 C      5.9804     6.0000     0.0196     3.9973     3.9973    -0.0000
  2 C      5.9804     6.0000     0.0196     3.9973     3.9973     0.0000
  3 C      5.9804     6.0000     0.0196     3.9973     3.9973    -0.0000
  4 C      5.9804     6.0000     0.0196     3.9973     3.9973    -0.0000
  5 C      5.9804     6.0000     0.0196     3.9973     3.9973     0.0000
  6 H      1.0196     1.0000    -0.0196     0.9678     0.9678    -0.0000
  7 H      1.0196     1.0000    -0.0196     0.9678     0.9678    -0.0000
  8 H      1.0196     1.0000    -0.0196     0.9678     0.9678    -0.0000
  9 H      1.0196     1.0000    -0.0196     0.9678     0.9678    -0.0000
 10 H      1.0196     1.0000    -0.0196     0.9678     0.9678    -0.0000
 11 H      1.0196     1.0000    -0.0196     0.9678     0.9678    -0.0000

  Mayer bond orders larger than 0.100000
B(  0-C ,  1-C ) :   1.4536 B(  0-C ,  5-C ) :   1.4536 B(  0-C ,  6-H ) :   0.9380 
B(  1-C ,  2-C ) :   1.4536 B(  1-C ,  7-H ) :   0.9380 B(  2-C ,  3-C ) :   1.4536 
B(  2-C ,  8-H ) :   0.9380 B(  3-C ,  4-C ) :   1.4536 B(  3-C ,  9-H ) :   0.9380 
B(  4-C ,  5-C ) :   1.4536 B(  4-C , 10-H ) :   0.9380 B(  5-C , 11-H ) :   0.9380 


-------
TIMINGS
-------

Total SCF time: 0 days 0 hours 0 min 0 sec 

Total time                  ....       0.767 sec
Sum of individual times     ....       0.588 sec  ( 76.7%)

SCF preparation             ....       0.016 sec  (  2.1%)
Fock matrix formation       ....       0.554 sec  ( 72.2%)
  Startup                   ....       0.000 sec  (  0.1% of F)
  Split-RI-J                ....       0.140 sec  ( 25.3% of F)
  XC integration            ....       0.579 sec  (104.6% of F)
    Basis function eval.    ....       0.257 sec  ( 44.4% of XC)
    Density eval.           ....       0.093 sec  ( 16.0% of XC)
    XC-Functional eval.     ....       0.027 sec  (  4.7% of XC)
    XC-Potential eval.      ....       0.161 sec  ( 27.8% of XC)
Diagonalization             ....       0.000 sec  (  0.0%)
Density matrix formation    ....       0.001 sec  (  0.1%)
Total Energy calculation    ....       0.000 sec  (  0.0%)
Population analysis         ....       0.013 sec  (  1.7%)
Orbital Transformation      ....       0.001 sec  (  0.1%)
Orbital Orthonormalization  ....       0.000 sec  (  0.0%)
DIIS solution               ....       0.001 sec  (  0.2%)
SOSCF solution              ....       0.002 sec  (  0.3%)
Finished LeanSCF after   0.8 sec

Maximum memory used throughout the entire LEANSCF-calculation: 13.3 MB

-------------------------   --------------------
FINAL SINGLE POINT ENERGY      -231.952069402477
-------------------------   --------------------

                                *** OPTIMIZATION RUN DONE ***


------------------------------------------------------------------------------
                              ORCA PROPERTY CALCULATIONS
------------------------------------------------------------------------------

GBWName                                 ... benzene_opt.gbw
Number of atoms                         ...     12
Number of basis functions               ...    150
Max core memory                         ...   4096 MB

Electric properties:
Dipole moment                           ... YES
Quadrupole moment                       ...  NO
Static polarizability (Dipole/Dipole)   ...  NO
Static polarizability (Dipole/Quad.)    ...  NO
Static polarizability (Quad./Quad.)     ...  NO
Static polarizability (Velocity)        ...  NO
Static hyperpolarizability              ...  NO

Atomic electric properties:
Dipole moment                           ...  NO
Quadrupole moment                       ...  NO
Static polarizability                   ...  NO

Choice of electric origin               ... Center of mass
Position of electric origin             ...    -0.000000    -0.000000    -0.000000

General magnetic properties:
Magnetizability                         ...  NO

EPR properties:
g-Tensor (aka g-matrix)                 ...  NO
Zero-Field splitting spin-orbit         ...  NO
Zero-field splitting spin-spin          ...  NO
Hyperfine couplings                     ...  NO (   0 nuclei)
Quadrupole couplings                    ...  NO (   0 nuclei)
Contact density                         ...  NO (   0 nuclei)

NMR properties:
Chemical shifts                         ...  NO (   0 nuclei)
Spin-rotation constants                 ...  NO (   0 nuclei)
Spin-spin couplings                     ...  NO (   0 nuclei,    0 pairs)

Choice of magnetic origin               ... GIAO
Position of magnetic origin             ...     0.000000     0.000000     0.000000

Properties with geometric perturbations:
SCF Hessian                             ...  NO
IR spectrum                             ...  NO
VCD spectrum                            ...  NO
X-ray spectroscopy properties:
SCF XES/XAS/RIXS spectra                ...  NO

SCF SOC stabilization energy            ...  NO
Diagonal Born-Oppenheimer correction    ...  NO

-------------
DIPOLE MOMENT
-------------

Method             : SCF
Type of density    : Electron Density
Multiplicity       :   1
Irrep              :   0
Energy             :  -231.9520694024767238 Eh
Basis              : AO
                                X                 Y                 Z
Electronic contribution:      0.000000002       0.000000007      -0.000000008
Nuclear contribution   :      0.000000001       0.000000001       0.000000010
                        -----------------------------------------
Total Dipole Moment    :      0.000000003       0.000000008       0.000000002
                        -----------------------------------------
Magnitude (a.u.)       :      0.000000009
Magnitude (Debye)      :      0.000000023



--------------------
Rotational spectrum 
--------------------
 
Rotational constants in cm-1:             0.187255             0.187243             0.093624 
Rotational constants in MHz :          5613.765718          5613.393624          2806.789835 

Dipole components along the rotational axes: 
x,y,z [a.u.] :     0.000000    -0.000000     0.000000 
x,y,z [Debye]:     0.000000    -0.000000     0.000000 

 

Dipole moment calculation done in   0.0 sec 

Maximum memory used throughout the entire PROP-calculation: 7.8 MB

--------------------------------
SUGGESTED CITATIONS FOR THIS RUN
--------------------------------

Below you find a list of papers that are relevant to this ORCA run
We neither can nor want to force you to cite these papers, but we appreciate if you do
You receive ORCA, which is the product of decades of hard work by many enthusiastic individuals, for free
The only thing we kindly ask in return is that you cite our papers,
We deeply appreciate it, if you show your appreciation for ORCA by not just citing the generic ORCA reference.

Please note that relegating all ORCA citations to the supporting information does *not* help us.
SI sections are not indexed - citations you put there will not count into any citation statistics
But we need these citations in order to attract the funding resources that allow us to do what we are doing

Therefore, if you are a happy ORCA user, please consider citing a few of the papers listed below in the main body of your paper

In addition to the list printed below, the program has created the file benzene_opt.bibtex that contains the list in bibtex format
You can import this file easily into all common literature databanks and citation aid programs

It goes without saying that in many instances, there are alternative algorithms to achieve similar
results as the ones you have gotten from ORCA. It is, of course, also the case that in some instances
ORCA just re-implements algorithms worked out by others. We are fully aware of that and we are also
fully appreciative of our colleagues work. Hence this citation list should not be read as indicating
that the listed papers, which are focused on our own work, are the only ones worth citing. It simply
meant to make it easier for users to cite ORCA specific papers. It is not a substitute for doing your
own literature research and citing the relevant literature in a scientifically appropriate manner.

List of essential papers. We consider these as the minimum necessary citations

  1. Neese, F.
     Software update: the ORCA program system, version 6.0
     WIRES Comput. Molec. Sci. 2025 15(1), e70019
     doi.org/10.1002/wcms.70019

List of papers to cite with high priority. The work reported in these papers was absolutely
necessary for this run to complete.
Our perspective: the developers of density functionals and basis sets usually get cited in chemistry papers
Good! But without the algorithms to do something with them, the functionals or basis sets would not do anything.
Hence, in our opinion, the algorithm design and method developments papers are equally worthy of getting cited

  1. Neese, F.
     An improvement of the resolution of the identity approximation for the formation of the Coulomb matrix
     J. Comp. Chem. 2003 24(14), 1740-1747
     doi.org/10.1002/jcc.10318
  2. Neese, F.
     The SHARK Integral Generation and Digestion System
     J. Comp. Chem. 2022 44(3), 381
     doi.org/10.1002/jcc.26942

List of suggested additional citations. These are papers that are important in the 'surrounding' of 
of this run, or papers that preceded the highly important papers. If you like your results we are grateful for a citation.

  1. Neese, F.
     The ORCA program system
     WIRES Comput. Molec. Sci. 2012 2(1), 73-78
     doi.org/10.1002/wcms.81
  2. Neese, F.
     Software update: the ORCA program system, version 4.0
     WIRES Comput. Molec. Sci. 2018 8(1), 1-6
     doi.org/10.1002/wcms.1327
  3. Neese, F.; Wennmohs, F.; Becker, U.; Riplinger, C.
     The ORCA quantum chemistry program package
     J. Chem. Phys. 2020 152(22), 224108
     doi.org/10.1063/5.0004608
  4. Neese, F.
     Software update: The ORCA program system—Version 5.0
     WIRES Comput. Molec. Sci. 2022 12(1), e1606
     doi.org/10.1002/wcms.1606

List of optional additional citations

  1. Neese, F.
     Approximate second-order SCF convergence for spin unrestricted wavefunctions
     Chem. Phys. Lett. 2000 325(1-3), 93-98
     doi.org/10.1016/s0009-2614(00)00662-x

Timings for individual modules:

Sum of individual times          ...       46.844 sec (=   0.781 min)
Startup calculation              ...       10.899 sec (=   0.182 min)  23.3 %
SCF iterations                   ...       22.323 sec (=   0.372 min)  47.7 %
Property calculations            ...        0.111 sec (=   0.002 min)   0.2 %
SCF Gradient evaluation          ...       13.499 sec (=   0.225 min)  28.8 %
Geometry relaxation              ...        0.012 sec (=   0.000 min)   0.0 %
                             ****ORCA TERMINATED NORMALLY****
TOTAL RUN TIME: 0 days 0 hours 0 minutes 48 seconds 55 msec
