[Molden Format]
[Title]
 Molden file created by orca_2mkl for BaseName=n2

[Atoms] AU
N    1   7          0.0000000000         0.0000000000        -1.0374596475 
N    2   7          0.0000000000         0.0000000000         1.0374596475 
[GTO]
  1 0
s   9 1.0 
    45840.0000000000         0.2070013119
     6868.0000000000         0.3885023806
     1563.0000000000         0.6693241386
      442.4000000000         1.0760700264
      144.3000000000         1.5891765404
       52.1800000000         2.0467625615
       20.3400000000         2.0957271491
        8.3810000000         1.4068954098
        3.5290000000         0.4024679210
s   9 1.0 
    45840.0000000000        -0.1280239503
     6868.0000000000        -0.2451024263
     1563.0000000000        -0.4185277093
      442.4000000000        -0.6855177236
      144.3000000000        -1.0179501673
       52.1800000000        -1.4038213591
       20.3400000000        -1.5671074566
        8.3810000000        -1.4767088923
        3.5290000000        -0.6121674414
s   1 1.0 
        1.0540000000         0.7413794612
s   1 1.0 
        0.4118000000         0.3663741711
s   1 1.0 
        0.1552000000         0.1762296099
p   3 1.0 
       49.3300000000         5.8003427037
       11.3700000000         6.3555590049
        3.4350000000         5.5883087071
p   1 1.0 
        1.1820000000         1.7567579743
p   1 1.0 
        0.4173000000         0.4780799923
p   1 1.0 
        0.1428000000         0.1251268026
d   1 1.0 
        2.8370000000        17.6796605055
d   1 1.0 
        0.9680000000         2.6930967689
d   1 1.0 
        0.3350000000         0.4205314648
f   1 1.0 
        2.0270000000        27.9525230183
f   1 1.0 
        0.6850000000         2.4339063574
g   1 1.0 
        1.4270000000        17.5039221697

  2 0
s   9 1.0 
    45840.0000000000         0.2070013119
     6868.0000000000         0.3885023806
     1563.0000000000         0.6693241386
      442.4000000000         1.0760700264
      144.3000000000         1.5891765404
       52.1800000000         2.0467625615
       20.3400000000         2.0957271491
        8.3810000000         1.4068954098
        3.5290000000         0.4024679210
s   9 1.0 
    45840.0000000000        -0.1280239503
     6868.0000000000        -0.2451024263
     1563.0000000000        -0.4185277093
      442.4000000000        -0.6855177236
      144.3000000000        -1.0179501673
       52.1800000000        -1.4038213591
       20.3400000000        -1.5671074566
        8.3810000000        -1.4767088923
        3.5290000000        -0.6121674414
s   1 1.0 
        1.0540000000         0.7413794612
s   1 1.0 
        0.4118000000         0.3663741711
s   1 1.0 
        0.1552000000         0.1762296099
p   3 1.0 
       49.3300000000         5.8003427037
       11.3700000000         6.3555590049
        3.4350000000         5.5883087071
p   1 1.0 
        1.1820000000         1.7567579743
p   1 1.0 
        0.4173000000         0.4780799923
p   1 1.0 
        0.1428000000         0.1251268026
d   1 1.0 
        2.8370000000        17.6796605055
d   1 1.0 
        0.9680000000         2.6930967689
d   1 1.0 
        0.3350000000         0.4205314648
f   1 1.0 
        2.0270000000        27.9525230183
f   1 1.0 
        0.6850000000         2.4339063574
g   1 1.0 
        1.4270000000        17.5039221697

[5D]
[7F]
[9G]
[MO]
 Sym=     1a
 Ene= -1.56471431705034E+01
 Spin= Alpha
 Occup= 2.000000
  1       0.701754650585
  2       0.000180906225
  3       0.013154266983
  4      -0.005451587213
  5       0.001576332019
  6       0.000000000000
  7       0.000000000000
  8       0.001113286321
  9       0.000000000000
 10       0.000000000000
 11      -0.000260842367
 12       0.000000000000
 13       0.000000000000
 14      -0.002005882248
 15       0.000000000000
 16       0.000000000000
 17       0.000316397612
 18       0.000162020508
 19       0.000000000000
 20       0.000000000000
 21      -0.000000000000
 22       0.000000000000
 23      -0.000175867009
 24       0.000000000000
 25       0.000000000000
 26       0.000000000000
 27       0.000000000000
 28      -0.000490691784
 29       0.000000000000
 30       0.000000000000
 31      -0.000000000000
 32       0.000000000000
 33       0.000001030756
 34       0.000000000000
 35       0.000000000000
 36      -0.000000000000
 37       0.000000000000
 38       0.000000000000
 39       0.000000000000
 40      -0.000116496898
 41       0.000000000000
 42       0.000000000000
 43       0.000000000000
 44       0.000000000000
 45       0.000000000000
 46       0.000000000000
 47      -0.000052779397
 48       0.000000000000
 49       0.000000000000
 50       0.000000000000
 51       0.000000000000
 52       0.000000000000
 53       0.000000000000
 54       0.000000000002
 55       0.000000000000
 56      -0.701754650585
 57      -0.000180906225
 58      -0.013154266983
 59       0.005451587213
 60      -0.001576332019
 61       0.000000000000
 62       0.000000000000
 63       0.001113286321
 64       0.000000000000
 65       0.000000000000
 66      -0.000260842367
 67       0.000000000000
 68       0.000000000000
 69      -0.002005882248
 70       0.000000000000
 71       0.000000000000
 72       0.000316397612
 73      -0.000162020508
 74       0.000000000000
 75       0.000000000000
 76       0.000000000000
 77       0.000000000000
 78       0.000175867009
 79       0.000000000000
 80       0.000000000000
 81      -0.000000000000
 82       0.000000000000
 83       0.000490691784
 84       0.000000000000
 85       0.000000000000
 86       0.000000000000
 87       0.000000000000
 88       0.000001030756
 89       0.000000000000
 90       0.000000000000
 91      -0.000000000000
 92       0.000000000000
 93       0.000000000000
 94       0.000000000000
 95      -0.000116496898
 96       0.000000000000
 97       0.000000000000
 98       0.000000000000
 99       0.000000000000
100       0.000000000000
101       0.000000000000
102       0.000052779397
103       0.000000000000
104       0.000000000000
105      -0.000000000000
106       0.000000000000
107       0.000000000000
108       0.000000000000
109      -0.000000000002
110       0.000000000000
 Sym=     1a
 Ene= -1.56463277959073E+01
 Spin= Alpha
 Occup= 2.000000
  1      -0.701380027066
  2       0.003113495766
  3      -0.009892044625
  4       0.007051796130
  5       0.003155186523
  6       0.000000000000
  7       0.000000000000
  8      -0.002310144569
  9       0.000000000000
 10       0.000000000000
 11      -0.002318047532
 12       0.000000000000
 13       0.000000000000
 14      -0.002931158513
 15       0.000000000000
 16       0.000000000000
 17      -0.001318785194
 18      -0.000137864842
 19       0.000000000000
 20       0.000000000000
 21      -0.000000000000
 22       0.000000000000
 23      -0.000473230789
 24       0.000000000000
 25       0.000000000000
 26      -0.000000000000
 27       0.000000000000
 28       0.000013344377
 29       0.000000000000
 30       0.000000000000
 31      -0.000000000000
 32       0.000000000000
 33      -0.000186590096
 34       0.000000000000
 35       0.000000000000
 36       0.000000000000
 37       0.000000000000
 38       0.000000000000
 39       0.000000000000
 40      -0.000001800765
 41       0.000000000000
 42       0.000000000000
 43      -0.000000000000
 44       0.000000000000
 45       0.000000000000
 46       0.000000000000
 47      -0.000131475000
 48       0.000000000000
 49       0.000000000000
 50      -0.000000000000
 51       0.000000000000
 52       0.000000000000
 53       0.000000000000
 54       0.000000000032
 55       0.000000000000
 56      -0.701380027066
 57       0.003113495766
 58      -0.009892044625
 59       0.007051796130
 60       0.003155186523
 61       0.000000000000
 62       0.000000000000
 63       0.002310144569
 64       0.000000000000
 65       0.000000000000
 66       0.002318047532
 67       0.000000000000
 68       0.000000000000
 69       0.002931158513
 70       0.000000000000
 71       0.000000000000
 72       0.001318785194
 73      -0.000137864842
 74       0.000000000000
 75       0.000000000000
 76      -0.000000000000
 77       0.000000000000
 78      -0.000473230789
 79       0.000000000000
 80       0.000000000000
 81      -0.000000000000
 82       0.000000000000
 83       0.000013344377
 84       0.000000000000
 85       0.000000000000
 86      -0.000000000000
 87       0.000000000000
 88       0.000186590096
 89       0.000000000000
 90       0.000000000000
 91      -0.000000000000
 92       0.000000000000
 93       0.000000000000
 94       0.000000000000
 95       0.000001800765
 96       0.000000000000
 97       0.000000000000
 98       0.000000000000
 99       0.000000000000
100       0.000000000000
101       0.000000000000
102      -0.000131475000
103       0.000000000000
104       0.000000000000
105      -0.000000000000
106       0.000000000000
107       0.000000000000
108       0.000000000000
109       0.000000000032
110       0.000000000000
 Sym=     1a
 Ene= -1.18904738228967E+00
 Spin= Alpha
 Occup= 2.000000
  1      -0.006045996338
  2       0.146880377504
  3       0.115928393588
  4       0.160415184227
  5      -0.072089786020
  6       0.000000000000
  7       0.000000000000
  8       0.118884091782
  9       0.000000000000
 10       0.000000000000
 11       0.230811106764
 12       0.000000000000
 13       0.000000000000
 14       0.226670266297
 15       0.000000000000
 16       0.000000000000
 17       0.068956700240
 18       0.009031399012
 19       0.000000000000
 20       0.000000000000
 21       0.000000000000
 22       0.000000000000
 23       0.030681338280
 24       0.000000000000
 25       0.000000000000
 26       0.000000000000
 27       0.000000000000
 28       0.018553453745
 29       0.000000000000
 30       0.000000000000
 31       0.000000000000
 32       0.000000000000
 33       0.003514377736
 34       0.000000000000
 35       0.000000000000
 36       0.000000000000
 37       0.000000000000
 38       0.000000000000
 39       0.000000000000
 40       0.006897457994
 41       0.000000000000
 42       0.000000000000
 43      -0.000000000000
 44       0.000000000000
 45       0.000000000000
 46       0.000000000000
 47       0.001773229263
 48       0.000000000000
 49       0.000000000000
 50      -0.000000000000
 51       0.000000000000
 52       0.000000000000
 53       0.000000000000
 54      -0.000000000978
 55       0.000000000000
 56      -0.006045996338
 57       0.146880377504
 58       0.115928393588
 59       0.160415184227
 60      -0.072089786020
 61       0.000000000000
 62       0.000000000000
 63      -0.118884091782
 64       0.000000000000
 65       0.000000000000
 66      -0.230811106764
 67       0.000000000000
 68       0.000000000000
 69      -0.226670266297
 70       0.000000000000
 71       0.000000000000
 72      -0.068956700240
 73       0.009031399012
 74       0.000000000000
 75       0.000000000000
 76       0.000000000000
 77       0.000000000000
 78       0.030681338280
 79       0.000000000000
 80       0.000000000000
 81       0.000000000000
 82       0.000000000000
 83       0.018553453745
 84       0.000000000000
 85       0.000000000000
 86       0.000000000000
 87       0.000000000000
 88      -0.003514377736
 89       0.000000000000
 90       0.000000000000
 91      -0.000000000000
 92       0.000000000000
 93       0.000000000000
 94       0.000000000000
 95      -0.006897457994
 96       0.000000000000
 97       0.000000000000
 98       0.000000000000
 99       0.000000000000
100       0.000000000000
101       0.000000000000
102       0.001773229263
103       0.000000000000
104       0.000000000000
105      -0.000000000000
106       0.000000000000
107       0.000000000000
108       0.000000000000
109      -0.000000000978
110       0.000000000000
 Sym=     1a
 Ene= -7.64569235327701E-01
 Spin= Alpha
 Occup= 2.000000
  1       0.001738898676
  2       0.223424962255
  3       0.178697604780
  4       0.376798443633
  5       0.222833949765
  6       0.000000000000
  7       0.000000000000
  8      -0.056591662792
  9       0.000000000000
 10       0.000000000000
 11      -0.106036731275
 12       0.000000000000
 13       0.000000000000
 14      -0.138908456941
 15       0.000000000000
 16       0.000000000000
 17      -0.067222882572
 18      -0.001375645178
 19       0.000000000000
 20       0.000000000000
 21       0.000000000000
 22       0.000000000000
 23      -0.006034435189
 24       0.000000000000
 25       0.000000000000
 26       0.000000000000
 27       0.000000000000
 28      -0.008772376122
 29       0.000000000000
 30       0.000000000000
 31       0.000000000000
 32       0.000000000000
 33      -0.000181638671
 34       0.000000000000
 35       0.000000000000
 36      -0.000000000000
 37       0.000000000000
 38       0.000000000000
 39       0.000000000000
 40      -0.000418462225
 41       0.000000000000
 42       0.000000000000
 43       0.000000000000
 44       0.000000000000
 45       0.000000000000
 46       0.000000000000
 47      -0.000104561032
 48       0.000000000000
 49       0.000000000000
 50       0.000000000000
 51       0.000000000000
 52       0.000000000000
 53       0.000000000000
 54       0.000000000049
 55       0.000000000000
 56      -0.001738898676
 57      -0.223424962255
 58      -0.178697604780
 59      -0.376798443633
 60      -0.222833949765
 61       0.000000000000
 62       0.000000000000
 63      -0.056591662792
 64       0.000000000000
 65       0.000000000000
 66      -0.106036731275
 67       0.000000000000
 68       0.000000000000
 69      -0.138908456941
 70       0.000000000000
 71       0.000000000000
 72      -0.067222882572
 73       0.001375645178
 74       0.000000000000
 75       0.000000000000
 76      -0.000000000000
 77       0.000000000000
 78       0.006034435189
 79       0.000000000000
 80       0.000000000000
 81      -0.000000000000
 82       0.000000000000
 83       0.008772376122
 84       0.000000000000
 85       0.000000000000
 86      -0.000000000000
 87       0.000000000000
 88      -0.000181638671
 89       0.000000000000
 90       0.000000000000
 91      -0.000000000000
 92       0.000000000000
 93       0.000000000000
 94       0.000000000000
 95      -0.000418462225
 96       0.000000000000
 97       0.000000000000
 98       0.000000000000
 99       0.000000000000
100       0.000000000000
101       0.000000000000
102       0.000104561032
103       0.000000000000
104       0.000000000000
105      -0.000000000000
106       0.000000000000
107       0.000000000000
108       0.000000000000
109      -0.000000000049
110       0.000000000000
 Sym=     1a
 Ene= -5.93504608212123E-01
 Spin= Alpha
 Occup= 1.937165
  1      -0.000000000000
  2      -0.000000000000
  3      -0.000000000000
  4      -0.000000000000
  5      -0.000000000000
  6       0.115838055530
  7       0.000000000000
  8       0.000000000000
  9       0.224674398583
 10       0.000000000000
 11       0.000000000000
 12       0.277392751910
 13       0.000000000000
 14       0.000000000000
 15       0.114430187475
 16       0.000000000000
 17       0.000000000000
 18       0.000000000000
 19       0.005851888127
 20       0.000000000000
 21       0.000000000000
 22       0.000000000000
 23       0.000000000000
 24       0.025564492681
 25       0.000000000000
 26       0.000000000000
 27       0.000000000000
 28      -0.000000000000
 29       0.024576310656
 30       0.000000000000
 31       0.000000000000
 32       0.000000000000
 33       0.000000000000
 34       0.002871201273
 35      -0.000000000000
 36      -0.000000000000
 37       0.000000000000
 38       0.000000000050
 39      -0.000000000000
 40      -0.000000000000
 41       0.006138214313
 42      -0.000000000000
 43      -0.000000000000
 44       0.000000000000
 45      -0.000000000046
 46       0.000000000000
 47       0.000000000000
 48       0.001885087809
 49      -0.000000000000
 50      -0.000000000000
 51       0.000000000000
 52      -0.000000000004
 53       0.000000000000
 54      -0.000000000000
 55       0.000000000000
 56      -0.000000000000
 57      -0.000000000000
 58      -0.000000000000
 59      -0.000000000000
 60      -0.000000000000
 61       0.115838055530
 62      -0.000000000000
 63      -0.000000000000
 64       0.224674398583
 65      -0.000000000000
 66      -0.000000000000
 67       0.277392751910
 68      -0.000000000000
 69      -0.000000000000
 70       0.114430187475
 71      -0.000000000000
 72      -0.000000000000
 73       0.000000000000
 74      -0.005851888127
 75      -0.000000000000
 76       0.000000000000
 77       0.000000000000
 78       0.000000000000
 79      -0.025564492681
 80      -0.000000000000
 81       0.000000000000
 82       0.000000000000
 83      -0.000000000000
 84      -0.024576310656
 85      -0.000000000000
 86       0.000000000000
 87       0.000000000000
 88      -0.000000000000
 89       0.002871201273
 90       0.000000000000
 91       0.000000000000
 92       0.000000000000
 93       0.000000000050
 94       0.000000000000
 95       0.000000000000
 96       0.006138214313
 97       0.000000000000
 98       0.000000000000
 99       0.000000000000
100      -0.000000000046
101      -0.000000000000
102       0.000000000000
103      -0.001885087809
104      -0.000000000000
105      -0.000000000000
106       0.000000000000
107       0.000000000004
108       0.000000000000
109      -0.000000000000
110       0.000000000000
 Sym=     1a
 Ene= -5.93504608212124E-01
 Spin= Alpha
 Occup= 1.937165
  1       0.000000000000
  2       0.000000000000
  3       0.000000000000
  4       0.000000000000
  5       0.000000000000
  6       0.000000000000
  7       0.115838055530
  8      -0.000000000000
  9       0.000000000000
 10       0.224674398583
 11      -0.000000000000
 12       0.000000000000
 13       0.277392751910
 14      -0.000000000000
 15       0.000000000000
 16       0.114430187475
 17      -0.000000000000
 18      -0.000000000000
 19       0.000000000000
 20       0.005851888127
 21      -0.000000000000
 22       0.000000000000
 23      -0.000000000000
 24       0.000000000000
 25       0.025564492681
 26      -0.000000000000
 27       0.000000000000
 28       0.000000000000
 29       0.000000000000
 30       0.024576310656
 31      -0.000000000000
 32       0.000000000000
 33      -0.000000000000
 34       0.000000000000
 35       0.002871201273
 36       0.000000000000
 37       0.000000000000
 38       0.000000000000
 39      -0.000000000050
 40       0.000000000000
 41       0.000000000000
 42       0.006138214313
 43       0.000000000000
 44       0.000000000000
 45      -0.000000000000
 46       0.000000000046
 47      -0.000000000000
 48       0.000000000000
 49       0.001885087809
 50       0.000000000000
 51       0.000000000000
 52      -0.000000000000
 53       0.000000000004
 54       0.000000000000
 55       0.000000000000
 56       0.000000000000
 57       0.000000000000
 58       0.000000000000
 59       0.000000000000
 60       0.000000000000
 61       0.000000000000
 62       0.115838055530
 63       0.000000000000
 64       0.000000000000
 65       0.224674398583
 66       0.000000000000
 67       0.000000000000
 68       0.277392751910
 69       0.000000000000
 70       0.000000000000
 71       0.114430187475
 72       0.000000000000
 73      -0.000000000000
 74      -0.000000000000
 75      -0.005851888127
 76      -0.000000000000
 77       0.000000000000
 78      -0.000000000000
 79      -0.000000000000
 80      -0.025564492681
 81      -0.000000000000
 82       0.000000000000
 83       0.000000000000
 84      -0.000000000000
 85      -0.024576310656
 86      -0.000000000000
 87       0.000000000000
 88       0.000000000000
 89       0.000000000000
 90       0.002871201273
 91      -0.000000000000
 92       0.000000000000
 93       0.000000000000
 94      -0.000000000050
 95      -0.000000000000
 96       0.000000000000
 97       0.006138214313
 98      -0.000000000000
 99       0.000000000000
100      -0.000000000000
101       0.000000000046
102      -0.000000000000
103      -0.000000000000
104      -0.001885087809
105       0.000000000000
106       0.000000000000
107       0.000000000000
108      -0.000000000004
109       0.000000000000
110       0.000000000000
 Sym=     1a
 Ene= -8.89942151108906E-01
 Spin= Alpha
 Occup= 1.992454
  1      -0.010305757056
  2      -0.200003180868
  3      -0.158209307290
  4      -0.306077356475
  5      -0.224724978661
  6      -0.000000000000
  7       0.000000000000
  8       0.067634373456
  9      -0.000000000000
 10       0.000000000000
 11       0.132181904584
 12      -0.000000000000
 13       0.000000000000
 14       0.154651438421
 15      -0.000000000000
 16       0.000000000000
 17       0.079994588326
 18       0.001376411743
 19       0.000000000000
 20      -0.000000000000
 21       0.000000000000
 22       0.000000000000
 23       0.004528847539
 24       0.000000000000
 25      -0.000000000000
 26       0.000000000000
 27       0.000000000000
 28      -0.001879383112
 29      -0.000000000000
 30       0.000000000000
 31       0.000000000000
 32       0.000000000000
 33       0.000439541520
 34       0.000000000000
 35      -0.000000000000
 36      -0.000000000000
 37       0.000000000000
 38      -0.000000000000
 39      -0.000000000000
 40      -0.001977072739
 41       0.000000000000
 42      -0.000000000000
 43      -0.000000000000
 44       0.000000000000
 45       0.000000000000
 46       0.000000000000
 47       0.000454891837
 48       0.000000000000
 49      -0.000000000000
 50      -0.000000000000
 51       0.000000000000
 52       0.000000000000
 53       0.000000000000
 54      -0.000000000250
 55       0.000000000000
 56      -0.010305757056
 57      -0.200003180868
 58      -0.158209307290
 59      -0.306077356475
 60      -0.224724978661
 61       0.000000000000
 62      -0.000000000000
 63      -0.067634373456
 64       0.000000000000
 65      -0.000000000000
 66      -0.132181904584
 67       0.000000000000
 68      -0.000000000000
 69      -0.154651438421
 70       0.000000000000
 71      -0.000000000000
 72      -0.079994588326
 73       0.001376411743
 74       0.000000000000
 75      -0.000000000000
 76       0.000000000000
 77       0.000000000000
 78       0.004528847539
 79       0.000000000000
 80      -0.000000000000
 81       0.000000000000
 82       0.000000000000
 83      -0.001879383112
 84      -0.000000000000
 85       0.000000000000
 86       0.000000000000
 87       0.000000000000
 88      -0.000439541520
 89      -0.000000000000
 90       0.000000000000
 91       0.000000000000
 92       0.000000000000
 93       0.000000000000
 94       0.000000000000
 95       0.001977072739
 96      -0.000000000000
 97       0.000000000000
 98       0.000000000000
 99       0.000000000000
100      -0.000000000000
101      -0.000000000000
102       0.000454891837
103       0.000000000000
104      -0.000000000000
105      -0.000000000000
106       0.000000000000
107       0.000000000000
108       0.000000000000
109      -0.000000000250
110       0.000000000000
 Sym=     1a
 Ene= 2.80330573874996E-01
 Spin= Alpha
 Occup= 0.064730
  1       0.000000000000
  2       0.000000000000
  3       0.000000000000
  4       0.000000000000
  5       0.000000000000
  6       0.000000000000
  7      -0.170108435412
  8      -0.000000000000
  9       0.000000000000
 10      -0.356493947111
 11      -0.000000000000
 12       0.000000000000
 13      -0.375724023432
 14      -0.000000000000
 15       0.000000000000
 16      -0.067454649312
 17      -0.000000000000
 18      -0.000000000000
 19      -0.000000000000
 20       0.002854123098
 21      -0.000000000000
 22       0.000000000000
 23      -0.000000000000
 24      -0.000000000000
 25       0.002389096469
 26      -0.000000000000
 27       0.000000000000
 28       0.000000000000
 29       0.000000000000
 30      -0.009378670645
 31      -0.000000000000
 32       0.000000000000
 33      -0.000000000000
 34      -0.000000000000
 35       0.005781089993
 36       0.000000000000
 37       0.000000000000
 38       0.000000000000
 39       0.000000000141
 40       0.000000000000
 41      -0.000000000000
 42       0.009487783708
 43       0.000000000000
 44       0.000000000000
 45      -0.000000000000
 46      -0.000000000102
 47      -0.000000000000
 48      -0.000000000000
 49       0.001620164970
 50       0.000000000000
 51       0.000000000000
 52      -0.000000000000
 53      -0.000000000015
 54       0.000000000000
 55       0.000000000000
 56       0.000000000000
 57       0.000000000000
 58       0.000000000000
 59       0.000000000000
 60       0.000000000000
 61      -0.000000000000
 62       0.170108435412
 63       0.000000000000
 64      -0.000000000000
 65       0.356493947111
 66       0.000000000000
 67      -0.000000000000
 68       0.375724023432
 69       0.000000000000
 70      -0.000000000000
 71       0.067454649312
 72       0.000000000000
 73      -0.000000000000
 74      -0.000000000000
 75       0.002854123098
 76      -0.000000000000
 77       0.000000000000
 78      -0.000000000000
 79       0.000000000000
 80       0.002389096469
 81      -0.000000000000
 82       0.000000000000
 83       0.000000000000
 84       0.000000000000
 85      -0.009378670645
 86      -0.000000000000
 87       0.000000000000
 88       0.000000000000
 89       0.000000000000
 90      -0.005781089993
 91      -0.000000000000
 92       0.000000000000
 93      -0.000000000000
 94      -0.000000000141
 95      -0.000000000000
 96       0.000000000000
 97      -0.009487783708
 98      -0.000000000000
 99       0.000000000000
100       0.000000000000
101       0.000000000102
102      -0.000000000000
103      -0.000000000000
104       0.001620164970
105       0.000000000000
106       0.000000000000
107      -0.000000000000
108      -0.000000000015
109       0.000000000000
110       0.000000000000
 Sym=     1a
 Ene= 2.80330573875009E-01
 Spin= Alpha
 Occup= 0.064730
  1      -0.000000000000
  2      -0.000000000000
  3      -0.000000000000
  4      -0.000000000000
  5      -0.000000000000
  6      -0.170108435412
  7       0.000000000000
  8       0.000000000000
  9      -0.356493947111
 10       0.000000000000
 11       0.000000000000
 12      -0.375724023432
 13       0.000000000000
 14       0.000000000000
 15      -0.067454649312
 16       0.000000000000
 17       0.000000000000
 18       0.000000000000
 19       0.002854123098
 20      -0.000000000000
 21       0.000000000000
 22       0.000000000000
 23       0.000000000000
 24       0.002389096469
 25      -0.000000000000
 26       0.000000000000
 27       0.000000000000
 28      -0.000000000000
 29      -0.009378670645
 30       0.000000000000
 31       0.000000000000
 32       0.000000000000
 33       0.000000000000
 34       0.005781089993
 35      -0.000000000000
 36      -0.000000000000
 37       0.000000000000
 38      -0.000000000141
 39      -0.000000000000
 40      -0.000000000000
 41       0.009487783708
 42      -0.000000000000
 43      -0.000000000000
 44       0.000000000000
 45       0.000000000102
 46       0.000000000000
 47       0.000000000000
 48       0.001620164970
 49      -0.000000000000
 50      -0.000000000000
 51       0.000000000000
 52       0.000000000015
 53       0.000000000000
 54      -0.000000000000
 55       0.000000000000
 56      -0.000000000000
 57      -0.000000000000
 58      -0.000000000000
 59      -0.000000000000
 60      -0.000000000000
 61       0.170108435412
 62      -0.000000000000
 63      -0.000000000000
 64       0.356493947111
 65      -0.000000000000
 66      -0.000000000000
 67       0.375724023432
 68      -0.000000000000
 69      -0.000000000000
 70       0.067454649312
 71      -0.000000000000
 72      -0.000000000000
 73       0.000000000000
 74       0.002854123098
 75      -0.000000000000
 76       0.000000000000
 77       0.000000000000
 78       0.000000000000
 79       0.002389096469
 80      -0.000000000000
 81       0.000000000000
 82       0.000000000000
 83      -0.000000000000
 84      -0.009378670645
 85       0.000000000000
 86       0.000000000000
 87       0.000000000000
 88      -0.000000000000
 89      -0.005781089993
 90       0.000000000000
 91       0.000000000000
 92       0.000000000000
 93       0.000000000141
 94       0.000000000000
 95       0.000000000000
 96      -0.009487783708
 97       0.000000000000
 98       0.000000000000
 99       0.000000000000
100      -0.000000000102
101      -0.000000000000
102       0.000000000000
103       0.001620164970
104      -0.000000000000
105      -0.000000000000
106       0.000000000000
107       0.000000000015
108       0.000000000000
109      -0.000000000000
110       0.000000000000
 Sym=     1a
 Ene= 8.69002745489359E-01
 Spin= Alpha
 Occup= 0.003756
  1      -0.048802849077
  2      -0.306585255277
  3      -0.571776457064
  4      -0.369670295789
  5       0.802333272098
  6       0.000000000000
  7       0.000000000000
  8       0.083327301497
  9       0.000000000000
 10       0.000000000000
 11       0.228791470622
 12       0.000000000000
 13       0.000000000000
 14      -0.149051174323
 15       0.000000000000
 16       0.000000000000
 17      -0.288512322694
 18       0.016982898194
 19      -0.000000000000
 20      -0.000000000000
 21       0.000000000000
 22       0.000000000000
 23       0.076431339045
 24      -0.000000000000
 25      -0.000000000000
 26       0.000000000001
 27       0.000000000000
 28      -0.023644097954
 29       0.000000000000
 30       0.000000000000
 31       0.000000000001
 32       0.000000000000
 33      -0.011486724668
 34      -0.000000000000
 35      -0.000000000000
 36      -0.000000000000
 37       0.000000000000
 38       0.000000000000
 39      -0.000000000000
 40      -0.024558237306
 41      -0.000000000000
 42      -0.000000000000
 43      -0.000000000000
 44       0.000000000000
 45      -0.000000000000
 46       0.000000000000