
                                 *****************
                                 * O   R   C   A *
                                 *****************

                                            #,                                       
                                            ###                                      
                                            ####                                     
                                            #####                                    
                                            ######                                   
                                           ########,                                 
                                     ,,################,,,,,                         
                               ,,#################################,,                 
                          ,,##########################################,,             
                       ,#########################################, ''#####,          
                    ,#############################################,,   '####,        
                  ,##################################################,,,,####,       
                ,###########''''           ''''###############################       
              ,#####''   ,,,,##########,,,,          '''####'''          '####       
            ,##' ,,,,###########################,,,                        '##       
           ' ,,###''''                  '''############,,,                           
         ,,##''                                '''############,,,,        ,,,,,,###''
      ,#''                                            '''#######################'''  
     '                                                          ''''####''''         
             ,#######,   #######,   ,#######,      ##                                
            ,#'     '#,  ##    ##  ,#'     '#,    #''#        ,####,    ,#,          
            ##       ##  ##   ,#'  ##            #'  '#       #'       ,# #          
            ##       ##  #######   ##           ,######,      #####,      #          
            '#,     ,#'  ##    ##  '#,     ,#' ,#      #,     #,   #      #          
             '#######'   ##     ##  '#######'  #'      '#     '####' #    #          



                #########################################################
                #                        -***-                          #
                #          Department of theory and spectroscopy        #
                #                                                       #
                #                      Frank Neese                      #
                #                                                       #
                #     Directorship, Architecture, Infrastructure        #
                #                    SHARK, DRIVERS                     #
                #        Core code/Algorithms in most modules           #
                #                                                       #
                #        Max Planck Institute fuer Kohlenforschung      #
                #                Kaiser Wilhelm Platz 1                 #
                #                 D-45470 Muelheim/Ruhr                 #
                #                      Germany                          #
                #                                                       #
                #                  All rights reserved                  #
                #                        -***-                          #
                #########################################################


                         Program Version 6.1.1  -  RELEASE   -
                                (GIT: $487d211cc3$)
                          ($2025-11-21 10:33:24 +0100$)


 With contributions from (in alphabetic order):
[Max-Planck-Institut fuer Kohlenforschung]                               
  Daniel Aravena         : Magnetic Suceptibility                        
  Michael Atanasov       : Ab Initio Ligand Field Theory (pilot matlab implementation)
  Alexander A. Auer      : GIAO ZORA, VPT2 properties, NMR spectrum      
  Ute Becker             : All parallelization in ORCA, NUMFREQ, NUMCALC 
  Giovanni Bistoni       : ED, misc. LED, open-shell LED, HFLD           
  Dmytro Bykov           : pre 5.0 version of the SCF Hessian            
  Marcos Casanova-Páez   : Triplet and SCS-CIS(D). UHF-(DLPNO)-IP/EA/STEOM-CCSD. UHF-CVS-IP/STEOM-CCSD   
  Vijay G. Chilkuri      : MRCI spin determinant printing, contributions to CSF-ICE 
  Pauline Colinet        : FMM embedding                                 
  Dipayan Datta          : RHF DLPNO-CCSD density                        
  Achintya Kumar Dutta   : EOM-CC, STEOM-CC                              
  Nicolas Foglia         : Exact transition moments, OPA infrastructure, MCD improvements    
  Dmitry Ganyushin       : Spin-Orbit,Spin-Spin,Magnetic field MRCI      
  Miquel Garcia-Rates    : C-PCM and meta-GGA Hessian, CCSD/C-PCM, Gaussian charge scheme 
  Tiago L. C. Gouveia    : GS-ROHF, GS-ROCIS                             
  Yang Guo               : DLPNO-NEVPT2, F12-NEVPT2, CIM, IAO-localization        
  Andreas Hansen         : Spin unrestricted coupled pair/coupled cluster methods 
  Ingolf Harden          : AUTO-CI MPn and infrastructure                
  Benjamin Helmich-Paris : MC-RPA, TRAH-(SCF,CASSCF), AVAS, COSX integrals, SCF dyn. polar., MC-PDFT, srDFT 
  Lee Huntington         : MR-EOM, pCC                                   
  Robert Izsak           : Overlap fitted RIJCOSX, COSX-SCS-MP3, EOM     
  Riya Kayal             : Wick's Theorem for AUTO-CI, AUTO-CI UHF-CCSDT 
  Emily Kempfer          : AUTO-CI RHF CISDT and CCSDT, approximate NEVPT4
  Christian Kollmar      : KDIIS, OOCD, Brueckner-CCSD(T), CCSD density, CASPT2, CASPT2-K, improved NEVPT2 
  Axel Koslowski         : Symmetry handling                             
  Simone Kossmann        : meta-GGA functionals, TD-DFT gradient, OOMP2, (MP2 Hessian; deprecated post 5.0) 
  Lucas Lang             : DCDCAS, Hyperfine gauge corrections, ICE-SOC+SSC
  Marvin Lechner         : AUTO-CI (C++ implementation), FIC-MRCC        
  Spencer Leger          : CASSCF response                               
  Dagmar Lenk            : GEPOL surface, SMD, ORCA-2-JSON               
  Dimitrios Liakos       : Extrapolation schemes; Compound Job, Property file
  Dimitrios Manganas     : Further ROCIS development; embedding schemes. LFT, Crystal Embedding 
  Dimitrios Pantazis     : SARC Basis sets                               
  Anastasios Papadopoulos: AUTO-CI, single reference methods and gradients 
  Taras Petrenko         : pre 6.0 DFT Hessian and TD-DFT gradient,  ECA, NRVS 
  Petra Pikulova         : Analytic Raman intensities                    
  Peter Pinski           : DLPNO-MP2, DLPNO-MP2 Gradient                 
  Shashank Vittal Rao    : ES-AILFT, MagRelax                            
  Christoph Reimann      : Effective Core Potentials                     
  Marius Retegan         : Local ZFS, SOC                                
  Christoph Riplinger    : Optimizer, TS searches, QM/MM, DLPNO-CCSD(T), (RO)-DLPNO pert. Triples 
  Michael Roemelt        : Original ROCIS implementation, recursive CI coupling coefficients
  Masaaki Saitow         : Open-shell DLPNO-CCSD energy and density      
  Barbara Sandhoefer     : DKH picture change effects                    
  Yorick L. A. Schmerwitz: GMF and freeze-and-release deltaSCF, NEB S-IDPP initial path                    
  Kantharuban Sivalingam : CASSCF convergence/infrastructure, NEVPT2, NEVPT3, NEVPT4(SD), FIC-MRCI and CEPA variants
  Bernardo de Souza      : ESD, SOC TD-DFT                               
  Georgi L. Stoychev     : AutoAux, RI-MP2 NMR, DLPNO-MP2 response, X2C  
  Van Anh Tran           : RI-MP2 g-tensors                              
  Willem Van den Heuvel  : Paramagnetic NMR                              
  Zikuan Wang            : NOTCH, Electric field optimization            
  Frank Wennmohs         : Technical directorship and infrastructure     
  Hang Xu                : AUTO-CI-Response properties                   
                                                                         
[FACCTs GmbH]                                                            
  Markus Bursch, Nicolas Foglia, Miquel Garcia-Rates, Ingolf Harden, Hagen Neugebauer, Anastasios Papadopoulos, 
  Christoph Riplinger, Bernardo de Souza, Georgi L. Stoychev                                                    
                                                                 
  APM, various basis sets, CI-OPT, improved COSX, DLPNO-Multilevel,           
  DOCKER, DRACO, updates on ESD, Fragmentator, GOAT, IRC, LR-CPCM, L-BFGS, MBIS, meta-GGA TD-DFT gradient, ML-optimized integration grids, 
  MM, NACMEs, nearIR, NEB, NEB-TS, NL-DFT gradient (VV10), 2- and 3-layer-ONIOM, interface openCOSMO-RS, QMMM,   
  Crystal-QMMM, RESP, rigid body optimization, SF, symmetry and pop. for TD-DFT, various functionals, SOLVATOR                                   
                                                                         
[Other institutions]                                                     
  V. Asgeirsson          : NEB                                           
  Christoph Bannwarth    : sTDA-DFT, sTD-DFT, PBEh-3c, B97-3c, D3        
  Giovanni Bistoni       : ETS/NOCV, ADLD/ADEX, COVALED                  
  Martin Brehm           : Molecular dynamics                            
  Ronald Cardenas        : ETS/NOCV                                      
  Martina Colucci        : COVALED                                       
  Sebastian Ehlert       : rSCAN, r2SCAN, r2SCAN-3c, D4, dhf basis sets  
  Marvin Friede          : D4 for Fr, Ra, Ac-Lr                          
  Lars Goerigk           : TD-DFT with DH, B97 family of functionals     
  Stefan Grimme          : VdW corrections, initial TS optimization, DFT functionals, gCP, sTDA/sTD-DF 
  Waldemar Hujo          : DFT-NL                                        
  H. Jonsson             : NEB                                           
  Holger Kruse           : gCP                                           
  Marcel Mueller         : wB97X-3c, vDZP basis set                      
  Hagen Neugebauer       : wr2SCAN, Native XTB                           
  Gianluca Regni         : ADLD/ADEX                                     
  Tobias Risthaus        : pre 6.0 range-separated hybrid DFT and stability analysis
  Lukas Wittmann         : regularized MP2, r2SCAN double-hybrids, wr2SCAN        
                                                                         
We gratefully acknowledge several colleagues who have allowed us to      
interface, adapt or use parts of their codes:                            
  Ed Valeev, F. Pavosevic, A. Kumar             : LibInt (2-el integral package), F12 methods 
  Garnet Chan, S. Sharma, J. Yang, R. Olivares  : DMRG                   
  Ulf Ekstrom                                   : XCFun DFT Library      
  Mihaly Kallay                                 : mrcc  (arbitrary order and MRCC methods)
  Frank Weinhold                                : gennbo (NPA and NBO analysis)           
  Simon Mueller                                 : openCOSMO-RS                            
  Christopher J. Cramer and Donald G. Truhlar   : smd solvation model                     
  S Lehtola, MJT Oliveira, MAL Marques          : LibXC Library                           
  Liviu Ungur et al                             : ANISO software                          


 Your calculation uses the libint2 library for the computation of 2-el integrals
 For citations please refer to: http://libint.valeyev.net

 Your ORCA version has been built with support for libXC version: 7.0.0
 For citations please refer to: https://libxc.gitlab.io

 This ORCA versions uses:
   CBLAS   interface :  Fast vector & matrix operations
   LAPACKE interface :  Fast linear algebra routines
   SCALAPACK package :  Parallel linear algebra routines
   Shared memory     :  Shared parallel matrices


  ***********************************
  * Starting time: Fri Apr 24 17:03:22 2026
  * Host name:     student-net-vpn-1404.intern.ethz.ch
  * Process ID:    40108
  * Working dir.:  /Users/kszenes/code/moltui/wt/cclib/data/orca/mo
  ***********************************

================================================================================

----- Orbital basis set information -----
Your calculation utilizes the basis: cc-pVQZ 
       H, B-Ne : Obtained from the ccRepo (grant-hill.group.shef.ac.uk/ccrepo) Feb. 2017
                 T. H. Dunning, Jr., J. Chem. Phys. 90, 1007 (1989)
            He : Obtained from the ccRepo (grant-hill.group.shef.ac.uk/ccrepo) Feb. 2017
                 D. E. Woon, T. H. Dunning, Jr., J. Chem. Phys. 100, 2975 (1994)
  Li-Be, Na-Mg : Obtained from the ccRepo (grant-hill.group.shef.ac.uk/ccrepo) Feb. 2017
                 B. P. Prascher, D. E. Woon, K. A. Peterson, T. H. Dunning, Jr., A. K. Wilson, Theor. Chem. Acc. 128, 69 (2011)
         Al-Ar : Obtained from the ccRepo (grant-hill.group.shef.ac.uk/ccrepo) Feb. 2017
                 D. E. Woon, T. H. Dunning, Jr., J. Chem. Phys. 98, 1358 (1993)
            Ca : Obtained from the Peterson Research Group Website (tyr0.chem.wsu.edu/~kipeters) Feb. 2017
                 J. Koput, K. A. Peterson, J. Phys. Chem. 106, 9595 (2002)
         Sc-Zn : Obtained from the ccRepo (grant-hill.group.shef.ac.uk/ccrepo) Feb. 2017
                 N. B. Balabanov, K. A. Peterson, J. Chem. Phys. 123, 064107 (2005)
                 N. B. Balabanov, K. A. Peterson, J. Chem. Phys. 125, 074110 (2006)
         Ga-Kr : Obtained from the ccRepo (grant-hill.group.shef.ac.uk/ccrepo) Feb. 2017
                 A. K. Wilson, D. E. Woon, K. A. Peterson, T. H. Dunning, Jr., J. Chem. Phys. 110, 7667 (1999)

================================================================================
                                        WARNINGS
                       Please study these warnings very carefully!
================================================================================

WARNING: Old DensityContainer found on disk!
         Will remove this file - 
         If you want to keep old densities, please start your calculation with a different basename. 


================================================================================
                                       INPUT FILE
================================================================================
NAME = n2.inp
|  1> ! cc-pvqz usesym pmodel printmos printbasis noautostart
|  2> 
|  3> %casscf
|  4>   nel 6
|  5>   norb 6
|  6> end
|  7> 
|  8> * xyz 0 1 
|  9> N 0 0 0
| 10> N 0 0 1.098
| 11> *
| 12> 
| 13>                          ****END OF INPUT****
================================================================================
-----------------------
SYMMETRY HANDLING SETUP
-----------------------
Auto-detected point group .... D(inf)h
Reduced point group       .... D2h
Root mean square distance .... 0.000000000000000 au
Maximum distance          .... 0.000000000000000 au
Threshold in use          .... 0.000100000000000 au
Time for symmetry setup   .... 0.000 s


Symmetry-perfected Cartesians for point group D(inf)h:

Index  Symbol         Symmetry-perfected Cartesians (x, y, z; au)
   0     N      0.000000000000000   0.000000000000000  -1.037459647522767
   1     N      0.000000000000000   0.000000000000000   1.037459647522767

Index  Symbol         Symmetry-perfected Cartesians (x, y, z; Ang)
   0     N      0.000000000000000   0.000000000000000  -0.549000000000000
   1     N      0.000000000000000   0.000000000000000   0.549000000000000

                       ****************************
                       * Single Point Calculation *
                       ****************************

---------------------------------
CARTESIAN COORDINATES (ANGSTROEM)
---------------------------------
  N      0.000000    0.000000   -0.549000
  N      0.000000    0.000000    0.549000

----------------------------
CARTESIAN COORDINATES (A.U.)
----------------------------
  NO LB      ZA    FRAG     MASS         X           Y           Z
   0 N     7.0000    0    14.007    0.000000    0.000000   -1.037460
   1 N     7.0000    0    14.007    0.000000    0.000000    1.037460

--------------------------------
INTERNAL COORDINATES (ANGSTROEM)
--------------------------------
 N      0   0   0     0.000000000000     0.00000000     0.00000000
 N      1   0   0     1.098000000000     0.00000000     0.00000000

---------------------------
INTERNAL COORDINATES (A.U.)
---------------------------
 N      0   0   0     0.000000000000     0.00000000     0.00000000
 N      1   0   0     2.074919295046     0.00000000     0.00000000

---------------------
BASIS SET INFORMATION
---------------------
There are 1 groups of distinct atoms

 Group   1 Type N   : 21s6p3d2f1g contracted to 5s4p3d2f1g pattern {99111/3111/111/11/1}

Atom   0N    basis set group =>   1
Atom   1N    basis set group =>   1

-------------------------
BASIS SET IN INPUT FORMAT
-------------------------

 # Basis set for element : N 
 NewGTO N 
 S 9 
   1   45840.0000000000      0.0000927106
   2    6868.0000000000      0.0007225383
   3    1563.0000000000      0.0037779583
   4     442.4000000000      0.0156519735
   5     144.3000000000      0.0535565145
   6      52.1800000000      0.1479208236
   7      20.3400000000      0.3070163017
   8       8.3810000000      0.4007558217
   9       3.5290000000      0.2193221195
 S 9 
   1   45840.0000000000     -0.0000573387
   2    6868.0000000000     -0.0004558425
   3    1563.0000000000     -0.0023623535
   4     442.4000000000     -0.0099711961
   5     144.3000000000     -0.0343057310
   6      52.1800000000     -0.1014550566
   7      20.3400000000     -0.2295754654
   8       8.3810000000     -0.4206422748
   9       3.5290000000     -0.3335964279
 S 1 
   1       1.0540000000      1.0000000000
 S 1 
   1       0.4118000000      1.0000000000
 S 1 
   1       0.1552000000      1.0000000000
 P 3 
   1      49.3300000000      0.0311260974
   2      11.3700000000      0.2135566435
   3       3.4350000000      0.8383625589
 P 1 
   1       1.1820000000      1.0000000000
 P 1 
   1       0.4173000000      1.0000000000
 P 1 
   1       0.1428000000      1.0000000000
 D 1 
   1       2.8370000000      1.0000000000
 D 1 
   1       0.9680000000      1.0000000000
 D 1 
   1       0.3350000000      1.0000000000
 F 1 
   1       2.0270000000      1.0000000000
 F 1 
   1       0.6850000000      1.0000000000
 G 1 
   1       1.4270000000      1.0000000000
  end;

------------------------------------------------------------------------------
                             ORCA STARTUP CALCULATIONS
------------------------------------------------------------------------------
------------------------------------------------------------------------------
                   ___                                                        
                  /   \      - P O W E R E D   B Y -                         
                 /     \                                                     
                 |  |  |   _    _      __       _____    __    __             
                 |  |  |  | |  | |    /  \     |  _  \  |  |  /  |          
                  \  \/   | |  | |   /    \    | | | |  |  | /  /          
                 / \  \   | |__| |  /  /\  \   | |_| |  |  |/  /          
                |  |  |   |  __  | /  /__\  \  |    /   |      \           
                |  |  |   | |  | | |   __   |  |    \   |  |\   \          
                \     /   | |  | | |  |  |  |  | |\  \  |  | \   \       
                 \___/    |_|  |_| |__|  |__|  |_| \__\ |__|  \__/        
                                                                              
                      - O R C A' S   B I G   F R I E N D -                    
                                      &                                       
                       - I N T E G R A L  F E E D E R -                       
                                                                              
 v1 FN, 2020, v2 2021, v3 2022-2024                                           
------------------------------------------------------------------------------


----------------------
SHARK INTEGRAL PACKAGE
----------------------

Number of atoms                             ...      2
Number of basis functions                   ...    124
Number of shells                            ...     44
Maximum angular momentum                    ...      4
Integral batch strategy                     ... SHARK/LIBINT Hybrid
RI-J (if used) integral strategy            ... SPLIT-RIJ (Revised 2003 algorithm where possible)
Printlevel                                  ...      1
Contraction scheme used                     ... PARTIAL GENERAL contraction
Prescreening option                         ... SCHWARTZ
   Thresh                                   ... 1.000e-10
   Tcut                                     ... 1.000e-11
   Tpresel                                  ... 1.000e-11 
Coulomb Range Separation                    ... NOT USED
Exchange Range Separation                   ... NOT USED
Multipole approximations                    ... NOT USED
Finite Nucleus Model                        ... NOT USED
CABS basis                                  ... NOT available
Auxiliary Coulomb fitting basis             ... NOT available
Auxiliary J/K fitting basis                 ... NOT available
Auxiliary Correlation fitting basis         ... NOT available
Auxiliary 'external' fitting basis          ... NOT available

Checking pre-screening integrals            ... done (  0.0 sec) Dimension = 44
Save PGC pre-screening integrals            ... done (  0.0 sec) Dimension = 44
Calculate PGC overlap integrals             ... done (  0.0 sec) Dimension = 30
Calculating pre-screening integrals (ORCA)  ... done (  0.0 sec) Dimension = 30
Shell pair information
Shell pair cut-off parameter TPreSel        ...   1.0e-11
Total number of shell pairs                 ...       990
Shell pairs after pre-screening             ...       927
Total number of primitive shell pairs       ...      1182
Primitive shell pairs kept                  ...      1088
          la=0 lb=0:    239 shell pairs
          la=1 lb=0:    192 shell pairs
          la=1 lb=1:     36 shell pairs
          la=2 lb=0:    144 shell pairs
          la=2 lb=1:     48 shell pairs
          la=2 lb=2:     21 shell pairs
          la=3 lb=0:     96 shell pairs
          la=3 lb=1:     32 shell pairs
          la=3 lb=2:     24 shell pairs
          la=3 lb=3:     10 shell pairs
          la=4 lb=0:     46 shell pairs
          la=4 lb=1:     16 shell pairs
          la=4 lb=2:     12 shell pairs
          la=4 lb=3:      8 shell pairs
          la=4 lb=4:      3 shell pairs

Checking whether 4 symmetric matrices of dimension 124 fit in memory
:Max Core in MB      =   4096.00
 MB in use           =      4.11
 MB left             =   4091.89
 MB needed           =      0.24
 Data fit in memory  = YES
Calculating Nuclear repulsion               ... done (  0.0 sec) ENN=     23.615376326685 Eh

Diagonalization of the overlap matrix:
Smallest eigenvalue                        ... 4.967e+00
Time for diagonalization                   ...    0.000 sec
Threshold for overlap eigenvalues          ... 1.000e-07
Number of eigenvalues below threshold      ... 0
Time for construction of square roots      ...    0.000 sec
Total time needed                          ...    0.001 sec

-------------------
DFT GRID GENERATION
-------------------

General Integration Accuracy     IntAcc      ... 4.388
Radial Grid Type                 RadialGrid  ... OptM3 with GC (2021)
Angular Grid (max. ang.)         AngularGrid ... 4 (Lebedev-302)
Angular grid pruning method      GridPruning ... 4 (adaptive)
Weight generation scheme         WeightScheme... mBecke (2022)
Basis function cutoff            BFCut       ... 1.0000e-10
Integration weight cutoff        WCut        ... 1.0000e-14
Partially contracted basis set               ... off
Rotationally invariant grid construction     ... off
Angular grids for H and He will be reduced by one unit

Total number of grid points                  ...    12256
Total number of batches                      ...      192
Average number of points per batch           ...       63
Average number of grid points per atom       ...     6128

---------------------
SHARK GRID GENERATION
---------------------

General Integration Accuracy     IntAcc      ... 4.388
Radial Grid Type                 RadialGrid  ... OptM3 with GC (2021)
Angular Grid (max. ang.)         AngularGrid ... 4 (Lebedev-302)
Angular grid pruning method      GridPruning ... 4 (adaptive)
Weight generation scheme         WeightScheme... mBecke (2022)
Basis function cutoff            BFCut       ... 1.0000e-10
Integration weight cutoff        WCut        ... 1.0000e-14
Partially contracted basis set               ... off
Rotationally invariant grid construction     ... off
Angular grids for H and He will be reduced by one unit
Steep s-basis detected: some atoms will have their radial
                        grid points doubled.

Total number of grid points                  ...    24726
Total number of batches                      ...      388
Average number of points per batch           ...       63
Average number of grid points per atom       ...    12363
Grids setup in   0.1 sec
Initializing property integral containers    ... done (  0.0 sec)

SHARK setup successfully completed in   0.1 seconds

Maximum memory used throughout the entire STARTUP-calculation: 30.1 MB
-------------------------------------------------------------------------------
                                 ORCA GUESS
                   Start orbitals & Density for SCF / CASSCF
-------------------------------------------------------------------------------

------------
SCF SETTINGS
------------
Hamiltonian:
 Ab initio Hamiltonian  Method          .... Hartree-Fock(GTOs)


General Settings:
 Integral files         IntName         .... n2
 Hartree-Fock type      HFTyp           .... CASSCF
 Total Charge           Charge          ....    0
 Multiplicity           Mult            ....    1
 Number of Electrons    NEL             ....   14
 Basis Dimension        Dim             ....  110
 Nuclear Repulsion      ENuc            ....     23.6153763267 Eh

 Symmetry handling      UseSym         .... ON
 Point group                           .... D(inf)h
 Symmetry-adapted orbitals             .... D2h
 Petite-list algorithm                 .... OFF
 Number of irreps                      .... 8
   Irrep   Ag has   22 symmetry adapted basis functions (ofs=   0)
   Irrep  B1g has    7 symmetry adapted basis functions (ofs=  22)
   Irrep  B2g has   13 symmetry adapted basis functions (ofs=  29)
   Irrep  B3g has   13 symmetry adapted basis functions (ofs=  42)
   Irrep   Au has    7 symmetry adapted basis functions (ofs=  55)
   Irrep  B1u has   22 symmetry adapted basis functions (ofs=  62)
   Irrep  B2u has   13 symmetry adapted basis functions (ofs=  84)
   Irrep  B3u has   13 symmetry adapted basis functions (ofs=  97)

------------------------------
INITIAL GUESS: MODEL POTENTIAL
------------------------------
Loading Hartree-Fock densities                     ... done
Calculating cut-offs                               ... done
Initializing the effective Hamiltonian             ... done
Setting up the integral package (SHARK)            ... done
Starting the Coulomb interaction                   ... done (   0.0 sec)
Making the grid                                    ... done (   0.0 sec)
Mapping shells                                     ... done
Starting the XC term evaluation                    ... done (   0.0 sec)
Diagonalizing the Hamiltonian                      ... done (   0.0 sec)
Now organizing SCF variables                       ... done
                      ------------------
                      INITIAL GUESS DONE (   0.0 sec)
                      ------------------
             **** ENERGY FILE WAS UPDATED (n2.en.tmp) ****
Finished Guess after   0.0 sec
Maximum memory used throughout the entire GUESS-calculation: 12.4 MB
-------------------------------------------------------------------------------
                              ORCA-CASSCF
-------------------------------------------------------------------------------

Symmetry handling      UseSym     ... ON
Point group                       ... D(inf)h
Used point group                  ... D2h
Number of irreps                  ... 8
   Irrep   Ag has   22 SALCs (ofs=   0) #(closed)=   2 #(active)=   1
   Irrep  B1g has    7 SALCs (ofs=  22) #(closed)=   0 #(active)=   0
   Irrep  B2g has   13 SALCs (ofs=  29) #(closed)=   0 #(active)=   1
   Irrep  B3g has   13 SALCs (ofs=  42) #(closed)=   0 #(active)=   1
   Irrep   Au has    7 SALCs (ofs=  55) #(closed)=   0 #(active)=   0
   Irrep  B1u has   22 SALCs (ofs=  62) #(closed)=   2 #(active)=   1
   Irrep  B2u has   13 SALCs (ofs=  84) #(closed)=   0 #(active)=   1
   Irrep  B3u has   13 SALCs (ofs=  97) #(closed)=   0 #(active)=   1
 Symmetries of active orbitals:
   MO =    4  IRREP= 7 (B3u)
   MO =    5  IRREP= 6 (B2u)
   MO =    6  IRREP= 0 (Ag)
   MO =    7  IRREP= 3 (B3g)
   MO =    8  IRREP= 2 (B2g)
   MO =    9  IRREP= 5 (B1u)

Building the CAS space              ... done (26 configurations for Mult=1 Irrep=0)

SYSTEM-SPECIFIC SETTINGS:
Number of active electrons          ...    6
Number of active orbitals           ...    6
Total number of electrons           ...   14
Total number of orbitals            ...  110

Determined orbital ranges:
   Internal       0 -    3 (   4 orbitals)
   Active         4 -    9 (   6 orbitals)
   External      10 -  109 ( 100 orbitals)
Number of rotation parameters      ...    166

CI-STEP:
CI strategy                         ... General CI
Number of symmetry/multplity blocks ...    1
BLOCK  0 WEIGHT=   1.0000
  Multiplicity                      ...    1
  Irrep                             ...    0 (Ag)
  #(Configurations)                 ...   26
  #(CSFs)                           ...   32
  #(Roots)                          ...    1
    ROOT=0 WEIGHT=    1.000000

  PrintLevel                        ...    1
  N(GuessMat)                       ...      2048
  MaxDim(CI)                        ...        10
  MaxIter(CI)                       ...        64
  Energy Tolerance CI               ...  1.00e-08
  Residual Tolerance CI             ...  1.00e-08
  Shift(CI)                         ...  1.00e-04

INTEGRAL-TRANSFORMATION-STEP:
  Algorithm                         ... EXACT

ORBITAL-IMPROVEMENT-STEP:
  Algorithm                         ... SuperCI(PT)
  Default Parametrization           ... CAYLEY
  Act-Act rotations                 ... depends on algorithm used

  Note: SuperCI(PT) will ignore FreezeIE, FreezeAct and FreezeGrad. In general Default settings are encouraged.
        In conjunction with ShiftUp, ShiftDn or GradScaling the performance of SuperCI(PT) is less optimal.  

  MaxRot                            ... 2.00e-01 
  Max. no of vectors (DIIS)         ... 15
  DThresh (cut-off) metric          ... 1.00e-06
  Switch step at gradient           ...  3.00e-02 
  Switch step at iteration          ...        50   
  Switch step to                    ... SuperCI(PT)    

SCF-SETTINGS:
  Incremental                       ... on
  RIJCOSX approximation             ... off
  RI-JK approximation               ... off
  AO integral handling              ... DIRECT
  Integral Neglect Thresh           ...  1.00e-10
  Primitive cutoff TCut             ...  1.00e-11
  Energy convergence tolerance      ...  1.00e-07
  Orbital gradient convergence      ...  1.00e-03
  Max. number of iterations         ...        75  


FINAL ORBITALS:
  Active   Orbitals                 ... natural 
  Internal Orbitals                 ... canonical 
  External Orbitals                 ... canonical 

------------------
CAS-SCF ITERATIONS
------------------


MACRO-ITERATION   1: 
   --- Inactive Energy E0 = -97.65753598 Eh
CI-ITERATION   0: 
  -109.038935333   0.000000000000 (    0.00)
   CI-PROBLEM SOLVED
   DENSITIES MADE

                 <<<<<<<<<<<<<<<<<<INITIAL CI STATE CHECK>>>>>>>>>>>>>>>>>>

BLOCK  0 MULT= 1 NROOTS= 1  IRREP=Ag 
ROOT   0:  E=    -109.0389353330 Eh
      0.92941 [     0]: 222000
      0.02502 [    12]: 112110
      0.01944 [     5]: 202200
      0.01944 [    16]: 022020

                 <<<<<<<<<<<<<<<<<<INITIAL CI STATE CHECK>>>>>>>>>>>>>>>>>>

   E(CAS)=  -109.038935333 Eh DE=    0.000000e+00
   --- Energy gap subspaces: Ext-Act = 0.123   Act-Int = 0.151
   N(occ)=  1.93067 1.93067 1.99291 0.07249 0.07249 0.00077
   ||g|| =     1.496106e+00 Max(G)=    4.942646e-01 Rot=108,0
   --- Orbital Update [SuperCI(PT)]
   --- Canonicalize Internal Space
   --- Canonicalize External Space
   --- SX_PT (Skipped TA=0 IT=0): ||X|| =      1.122807273 Max(X)(27,9) =     -0.651381838 
   --- SFit(Active Orbitals)

MACRO-ITERATION   2: 
   --- Inactive Energy E0 = -97.65928294 Eh
CI-ITERATION   0: 
  -109.088617708   0.000000000000 (    0.00)
   CI-PROBLEM SOLVED
   DENSITIES MADE
   E(CAS)=  -109.088617708 Eh DE=   -4.968237e-02
   --- Energy gap subspaces: Ext-Act = -0.305   Act-Int = 0.090
   N(occ)=  1.93470 1.93470 1.99125 0.06810 0.06810 0.00317
   ||g|| =     2.212305e-01 Max(G)=   -5.446082e-02 Rot=50,1
   --- Orbital Update [SuperCI(PT)]
   --- Canonicalize Internal Space
   --- Canonicalize External Space
   --- SX_PT (Skipped TA=0 IT=0): ||X|| =      0.636680846 Max(X)(16,9) =     -0.405739842 
   --- SFit(Active Orbitals)

MACRO-ITERATION   3: 
   --- Inactive Energy E0 = -97.65037750 Eh
CI-ITERATION   0: 
  -109.094229665   0.000000000000 (    0.00)
   CI-PROBLEM SOLVED
   DENSITIES MADE
   E(CAS)=  -109.094229665 Eh DE=   -5.611957e-03
   --- Energy gap subspaces: Ext-Act = -0.535   Act-Int = 0.053
   N(occ)=  1.93678 1.93678 1.99057 0.06574 0.06574 0.00440
   ||g|| =     6.556899e-02 Max(G)=    3.592780e-02 Rot=9,3
   --- Orbital Update [SuperCI(PT)]
   --- Canonicalize Internal Space
   --- Canonicalize External Space
   --- SX_PT (Skipped TA=0 IT=0): ||X|| =      0.396246878 Max(X)(19,9) =     -0.272713034 
   --- SFit(Active Orbitals)

MACRO-ITERATION   4: 
   --- Inactive Energy E0 = -97.66717968 Eh
CI-ITERATION   0: 
  -109.097173947   0.000000000000 (    0.00)
   CI-PROBLEM SOLVED
   DENSITIES MADE
   E(CAS)=  -109.097173947 Eh DE=   -2.944282e-03
   --- Energy gap subspaces: Ext-Act = -0.578   Act-Int = 0.110
   N(occ)=  1.93803 1.93803 1.98905 0.06446 0.06446 0.00596
   ||g|| =     5.047374e-02 Max(G)=    1.610486e-02 Rot=12,6
   --- Orbital Update [SuperCI(PT)]
   --- Canonicalize Internal Space
   --- Canonicalize External Space
   --- SX_PT (Skipped TA=0 IT=0): ||X|| =      0.440995790 Max(X)(19,9) =      0.319887753 
   --- SFit(Active Orbitals)

MACRO-ITERATION   5: 
   --- Inactive Energy E0 = -97.66564159 Eh
CI-ITERATION   0: 
  -109.097612942   0.000000000000 (    0.00)
   CI-PROBLEM SOLVED
   DENSITIES MADE
   E(CAS)=  -109.097612942 Eh DE=   -4.389950e-04
   --- Energy gap subspaces: Ext-Act = -0.590   Act-Int = 0.114
   N(occ)=  1.93814 1.93814 1.98887 0.06434 0.06434 0.00616
   ||g|| =     4.758656e-02 Max(G)=    1.528377e-02 Rot=12,6
   --- Orbital Update [SuperCI(PT)]
   --- Canonicalize Internal Space
   --- Canonicalize External Space
   --- SX_PT (Skipped TA=0 IT=0): ||X|| =      0.442113692 Max(X)(19,9) =     -0.317591146 
   --- SFit(Active Orbitals)
   --- Failed to constrain active orbitals due to rotations:
       Rot(  9, 16) with OVL=0.536770
   --- SFit: squared overlap of the active orbitals QMAT=C*CT
                  0          1          2          3          4          5    
      0       0.999999   0.000000  -0.000000  -0.000000   0.000000  -0.000000
      1       0.000000   0.999999   0.000000   0.000000   0.000000   0.000000
      2      -0.000000   0.000000   0.582474  -0.000000   0.000000   0.000000
      3      -0.000000   0.000000  -0.000000   0.999881  -0.000000  -0.000000
      4       0.000000   0.000000   0.000000  -0.000000   0.999881   0.000000
      5      -0.000000   0.000000   0.000000  -0.000000   0.000000   0.469679

   --- Warning: Active Space composition changed by more than 50% in this iteration. 
                Maybe it will fix itself: Final composition should be checked

MACRO-ITERATION   6: 
   --- Inactive Energy E0 = -96.62582320 Eh
CI-ITERATION   0: 
  -109.093928985   0.000000000000 (    0.00)
   CI-PROBLEM SOLVED
   DENSITIES MADE
   E(CAS)=  -109.093928985 Eh DE=    3.683957e-03
   --- Energy gap subspaces: Ext-Act = -0.428   Act-Int = -0.365
   N(occ)=  1.93527 1.93527 1.99335 0.06594 0.06594 0.00424
   ||g|| =     7.178326e-02 Max(G)=    2.636918e-02 Rot=12,6
   --- Orbital Update [SuperCI(PT)]
   --- Canonicalize Internal Space
   --- Canonicalize External Space
   --- SX_PT (Skipped TA=0 IT=0): ||X|| =      0.292724620 Max(X)(19,9) =      0.186384696 
   --- SFit(Active Orbitals)

MACRO-ITERATION   7: 
   --- Inactive Energy E0 = -97.24111217 Eh
CI-ITERATION   0: 
  -109.092859055   0.000000000000 (    0.00)
   CI-PROBLEM SOLVED
   DENSITIES MADE
   E(CAS)=  -109.092859055 Eh DE=    1.069929e-03
   --- Energy gap subspaces: Ext-Act = -0.451   Act-Int = -0.154
   N(occ)=  1.93683 1.93683 1.99271 0.06499 0.06499 0.00365
   ||g|| =     1.840523e-02 Max(G)=    9.782853e-03 Rot=9,3
   --- Orbital Update [SuperCI(PT)]
   --- Canonicalize Internal Space
   --- Canonicalize External Space
   --- SX_PT (Skipped TA=0 IT=0): ||X|| =      0.071265772 Max(X)(27,9) =      0.062179704 
   --- SFit(Active Orbitals)

MACRO-ITERATION   8: 
   --- Inactive Energy E0 = -97.29661231 Eh
CI-ITERATION   0: 
  -109.092892090   0.000000000000 (    0.00)
   CI-PROBLEM SOLVED
   DENSITIES MADE
   E(CAS)=  -109.092892090 Eh DE=   -3.303503e-05
   --- Energy gap subspaces: Ext-Act = -0.454   Act-Int = -0.131
   N(occ)=  1.93702 1.93702 1.99253 0.06486 0.06486 0.00370
   ||g|| =     2.192948e-02 Max(G)=    1.106527e-02 Rot=9,3
   --- Orbital Update [SuperCI(PT)]
   --- Canonicalize Internal Space
   --- Canonicalize External Space
   --- SX_PT (Skipped TA=0 IT=0): ||X|| =      0.023615764 Max(X)(27,9) =     -0.019225786 
   --- SFit(Active Orbitals)

MACRO-ITERATION   9: 
   --- Inactive Energy E0 = -97.43613946 Eh
CI-ITERATION   0: 
  -109.093094918   0.000000000000 (    0.00)
   CI-PROBLEM SOLVED
   DENSITIES MADE
   E(CAS)=  -109.093094918 Eh DE=   -2.028275e-04
   --- Energy gap subspaces: Ext-Act = -0.460   Act-Int = -0.065
   N(occ)=  1.93762 1.93762 1.99199 0.06444 0.06444 0.00388
   ||g|| =     1.287725e-02 Max(G)=   -6.703704e-03 Rot=9,3
   --- Orbital Update [SuperCI(PT)]
   --- Canonicalize Internal Space
   --- Canonicalize External Space
   --- SX_PT (Skipped TA=0 IT=0): ||X|| =      0.122584799 Max(X)(19,9) =     -0.092837802 
   --- SFit(Active Orbitals)

MACRO-ITERATION  10: 
   --- Inactive Energy E0 = -97.42697980 Eh
CI-ITERATION   0: 
  -109.093086918   0.000000000000 (    0.00)
   CI-PROBLEM SOLVED
   DENSITIES MADE
   E(CAS)=  -109.093086918 Eh DE=    7.999640e-06
   --- Energy gap subspaces: Ext-Act = -0.459   Act-Int = -0.069
   N(occ)=  1.93767 1.93767 1.99204 0.06437 0.06437 0.00387
   ||g|| =     1.178121e-02 Max(G)=   -6.417513e-03 Rot=9,3
   --- Orbital Update [SuperCI(PT)]
   --- Canonicalize Internal Space
   --- Canonicalize External Space
   --- SX_PT (Skipped TA=0 IT=0): ||X|| =      0.114886073 Max(X)(19,9) =     -0.082753668 
   --- SFit(Active Orbitals)

MACRO-ITERATION  11: 
   --- Inactive Energy E0 = -97.27395316 Eh
CI-ITERATION   0: 
  -109.092923383   0.000000000000 (    0.00)
   CI-PROBLEM SOLVED
   DENSITIES MADE
   E(CAS)=  -109.092923383 Eh DE=    1.635351e-04
   --- Energy gap subspaces: Ext-Act = -0.440   Act-Int = -0.138
   N(occ)=  1.93715 1.93715 1.99256 0.06470 0.06470 0.00374
   ||g|| =     2.001268e-03 Max(G)=    7.789463e-04 Rot=12,6
   --- Orbital Update [SuperCI(PT)]
   --- Canonicalize Internal Space
   --- Canonicalize External Space
   --- SX_PT (Skipped TA=0 IT=0): ||X|| =      0.020046292 Max(X)(19,9) =      0.017869958 
   --- SFit(Active Orbitals)

MACRO-ITERATION  12: 
   --- Inactive Energy E0 = -97.27850240 Eh
CI-ITERATION   0: 
  -109.092922638   0.000000000000 (    0.00)
   CI-PROBLEM SOLVED
   DENSITIES MADE
   E(CAS)=  -109.092922638 Eh DE=    7.454041e-07
   --- Energy gap subspaces: Ext-Act = -0.441   Act-Int = -0.137
   N(occ)=  1.93716 1.93716 1.99254 0.06470 0.06470 0.00374
   ||g|| =     1.675638e-03 Max(G)=   -5.606892e-04 Rot=30,2
   --- Orbital Update [SuperCI(PT)]
   --- Canonicalize Internal Space
   --- Canonicalize External Space
   --- SX_PT (Skipped TA=0 IT=0): ||X|| =      0.016857603 Max(X)(19,9) =      0.015091210 
Warning: badly conditioned DIIS matrix, 1 vectors out of 12 destroyed
Warning: badly conditioned DIIS matrix, 1 vectors out of 11 destroyed
   --- SFit(Active Orbitals)

MACRO-ITERATION  13: 
   --- Inactive Energy E0 = -97.30573761 Eh
CI-ITERATION   0: 
  -109.092922362   0.000000000000 (    0.00)
   CI-PROBLEM SOLVED
   DENSITIES MADE
   E(CAS)=  -109.092922362 Eh DE=    2.752333e-07
   --- Energy gap subspaces: Ext-Act = -0.441   Act-Int = -0.125
   N(occ)=  1.93717 1.93717 1.99245 0.06473 0.06473 0.00376
   ||g|| =     3.473468e-04 Max(G)=   -1.503792e-04 Rot=12,2
                     ---- THE CAS-SCF GRADIENT HAS CONVERGED ----
                            --- FINALIZING ORBITALS ---
                    ---- DOING ONE FINAL ITERATION FOR PRINTING ----
   --- Canonicalize Internal Space
   --- Canonicalize External Space

MACRO-ITERATION  14: 
   --- Inactive Energy E0 = -97.30573761 Eh
   --- All densities will be recomputed
CI-ITERATION   0: 
  -109.092922362   0.000000000000 (    0.00)
   CI-PROBLEM SOLVED
   DENSITIES MADE
   E(CAS)=  -109.092922362 Eh DE=    6.305498e-10
   --- Energy gap subspaces: Ext-Act = -0.449   Act-Int = -0.125
   N(occ)=  1.93717 1.93717 1.99245 0.06473 0.06473 0.00376
   ||g|| =     2.623190e-04 Max(G)=   -1.491971e-04 Rot=13,2
   --- Checking final active space composition 

--------------
CASSCF RESULTS
--------------

Final CASSCF energy       : -109.092922362 Eh   -2968.5693 eV

----------------
ORBITAL ENERGIES
----------------

  NO   OCC          E(Eh)            E(eV)    Irrep 
   0   2.0000     -15.647143      -425.7804    1-B1u
   1   2.0000     -15.646328      -425.7582    1-Ag
   2   2.0000      -1.189047       -32.3556    2-Ag
   3   2.0000      -0.764569       -20.8050    2-B1u
   4   1.9372      -0.593505       -16.1501    1-B3u
   5   1.9372      -0.593505       -16.1501    1-B2u
   6   1.9925      -0.889942       -24.2166    3-Ag
   7   0.0647       0.280331         7.6282    1-B3g
   8   0.0647       0.280331         7.6282    1-B2g
   9   0.0038       0.869003        23.6468    3-B1u
  10   0.0000       0.420231        11.4351    2-B2u
  11   0.0000       0.420231        11.4351    2-B3u
  12   0.0000       0.429717        11.6932    4-Ag
  13   0.0000       0.443393        12.0653    5-Ag
  14   0.0000       0.478430        13.0187    2-B2g
  15   0.0000       0.478430        13.0187    2-B3g
  16   0.0000       0.560196        15.2437    4-B1u
  17   0.0000       0.780577        21.2406    6-Ag
  18   0.0000       0.780577        21.2406    1-B1g
  19   0.0000       0.872839        23.7512    5-B1u
  20   0.0000       1.071885        29.1675    3-B2u
  21   0.0000       1.071885        29.1675    3-B3u
  22   0.0000       1.145112        31.1601    1-Au
  23   0.0000       1.145112        31.1601    6-B1u
  24   0.0000       1.250721        34.0338    7-Ag
  25   0.0000       1.352232        36.7961    3-B3g
  26   0.0000       1.352232        36.7961    3-B2g
  27   0.0000       1.524046        41.4714    7-B1u
  28   0.0000       2.056239        55.9531    4-B2u
  29   0.0000       2.056239        55.9531    4-B3u
  30   0.0000       2.255051        61.3630    8-Ag
  31   0.0000       2.294307        62.4313    8-B1u
  32   0.0000       2.368515        64.4506    4-B3g
  33   0.0000       2.368515        64.4506    4-B2g
  34   0.0000       2.456938        66.8567    5-B3u
  35   0.0000       2.456938        66.8567    5-B2u
  36   0.0000       2.499339        68.0105    9-Ag
  37   0.0000       2.548723        69.3543   10-Ag
  38   0.0000       2.548723        69.3543    2-B1g
  39   0.0000       2.729249        74.2666    6-B3u
  40   0.0000       2.729249        74.2666    6-B2u
  41   0.0000       2.954827        80.4049    5-B2g
  42   0.0000       2.954827        80.4049    5-B3g
  43   0.0000       3.043654        82.8220    3-B1g
  44   0.0000       3.043654        82.8220   11-Ag
  45   0.0000       3.056173        83.1627    6-B3g
  46   0.0000       3.056173        83.1627    6-B2g
  47   0.0000       3.068206        83.4901   12-Ag
  48   0.0000       3.145282        85.5875    2-Au
  49   0.0000       3.145282        85.5875    9-B1u
  50   0.0000       3.192034        86.8597   10-B1u
  51   0.0000       3.625021        98.6418    7-B3u
  52   0.0000       3.625021        98.6418    7-B2u
  53   0.0000       3.693965       100.5179   11-B1u
  54   0.0000       3.707965       100.8989    3-Au
  55   0.0000       3.707965       100.8989   12-B1u
  56   0.0000       4.984372       135.6317    7-B3g
  57   0.0000       4.984372       135.6317    7-B2g
  58   0.0000       5.023810       136.7048   13-Ag
  59   0.0000       5.364297       145.9699   13-B1u
  60   0.0000       6.663423       181.3210    8-B3u
  61   0.0000       6.663423       181.3210    8-B2u
  62   0.0000       6.952223       189.1796   14-Ag
  63   0.0000       6.952223       189.1796    4-B1g
  64   0.0000       7.053303       191.9301    5-B1g
  65   0.0000       7.053303       191.9301   15-Ag
  66   0.0000       7.352114       200.0612   14-B1u
  67   0.0000       7.352114       200.0612    4-Au
  68   0.0000       7.425208       202.0502   16-Ag
  69   0.0000       7.459029       202.9705    9-B3u
  70   0.0000       7.459029       202.9705    9-B2u
  71   0.0000       7.679108       208.9591    8-B3g
  72   0.0000       7.679108       208.9591    8-B2g
  73   0.0000       8.173725       222.4184   10-B2u
  74   0.0000       8.173725       222.4184   10-B3u
  75   0.0000       8.200417       223.1447    9-B2g
  76   0.0000       8.200417       223.1447    9-B3g
  77   0.0000       8.594311       233.8631   10-B3g
  78   0.0000       8.594311       233.8631   10-B2g
  79   0.0000       8.595912       233.9067   17-Ag
  80   0.0000       8.688824       236.4349   18-Ag
  81   0.0000       8.728738       237.5210   11-B2u
  82   0.0000       8.728738       237.5210   11-B3u
  83   0.0000       8.785179       239.0569    5-Au
  84   0.0000       8.785179       239.0569   15-B1u
  85   0.0000       8.846914       240.7368   16-B1u
  86   0.0000       8.922478       242.7930   11-B2g
  87   0.0000       8.922478       242.7930   11-B3g
  88   0.0000       8.980056       244.3598    6-B1g
  89   0.0000       8.980056       244.3598   19-Ag
  90   0.0000       9.077679       247.0162   17-B1u
  91   0.0000       9.144012       248.8212   12-B3u
  92   0.0000       9.144012       248.8212   12-B2u
  93   0.0000       9.348825       254.3945    7-B1g
  94   0.0000       9.348825       254.3945   20-Ag
  95   0.0000       9.393386       255.6070    6-Au
  96   0.0000       9.393386       255.6070   18-B1u
  97   0.0000      10.307715       280.4872   12-B3g
  98   0.0000      10.307715       280.4872   12-B2g
  99   0.0000      10.374366       282.3008    7-Au
 100   0.0000      10.374366       282.3008   19-B1u
 101   0.0000      10.652641       289.8731   13-B3u
 102   0.0000      10.652641       289.8731   13-B2u
 103   0.0000      10.851087       295.2731   20-B1u
 104   0.0000      12.734380       346.5201   21-Ag
 105   0.0000      12.984969       353.3390   13-B2g
 106   0.0000      12.984969       353.3390   13-B3g
 107   0.0000      13.415959       365.0668   21-B1u
 108   0.0000      32.150936       874.8714   22-Ag
 109   0.0000      32.497708       884.3076   22-B1u


---------------------------------------------
CAS-SCF STATES FOR BLOCK  0 MULT= 1 IRREP= Ag NROOTS= 1
---------------------------------------------

ROOT   0:  E=    -109.0929223617 Eh
      0.93536 [     0]: 222000
      0.02261 [    12]: 112110
      0.01725 [     5]: 202200
      0.01725 [    16]: 022020


--------------
DENSITY MATRIX
--------------

                  0          1          2          3          4          5    
      0       1.937165   0.000000   0.000000   0.000000   0.000000   0.000000
      1       0.000000   1.937165   0.000000   0.000000   0.000000   0.000000
      2       0.000000   0.000000   1.992454   0.000000   0.000000   0.000000
      3       0.000000   0.000000   0.000000   0.064730   0.000000   0.000000
      4       0.000000   0.000000   0.000000   0.000000   0.064730   0.000000
      5       0.000000   0.000000   0.000000   0.000000   0.000000   0.003756
Trace of the electron density:  6.000000

-----------------
ENERGY COMPONENTS
-----------------

One electron energy          :   -194.435341611 Eh       -5290.8546 eV
Two electron energy          :     61.727042923 Eh        1679.6782 eV
Nuclear repulsion energy     :     23.615376327 Eh         642.6071 eV
                               ----------------
                                 -109.092922362

Kinetic energy               :    109.038860518 Eh        2967.0982 eV
Potential energy             :   -218.131782880 Eh       -5935.6676 eV
Virial ratio                 :     -2.000495803 
                               ----------------
                                 -109.092922362

Core energy                  :    -97.305737614 Eh    -2647.8237 eV


----------------------------
LOEWDIN ORBITAL-COMPOSITIONS
----------------------------

                      0         1         2         3         4         5   
                 -15.64714 -15.64633  -1.18905  -0.76457  -0.59350  -0.59350
                   2.00000   2.00000   2.00000   2.00000   1.93717   1.93717
                  --------  --------  --------  --------  --------  --------
 0 N  s              49.4      49.4       8.2      20.5       0.0       0.0
 0 N  pz              0.1       0.1      40.2      27.0       0.0       0.0
 0 N  px              0.0       0.0       0.0       0.0      46.1       0.0
 0 N  py              0.0       0.0       0.0       0.0       0.0      46.1
 0 N  dz2             0.2       0.2       1.3       2.3       0.0       0.0
 0 N  dxz             0.0       0.0       0.0       0.0       2.8       0.0
 0 N  dyz             0.0       0.0       0.0       0.0       0.0       2.8
 0 N  f0              0.3       0.2       0.2       0.2       0.0       0.0
 0 N  f+1             0.0       0.0       0.0       0.0       1.0       0.0
 0 N  f-1             0.0       0.0       0.0       0.0       0.0       1.0
 0 N  g+1             0.0       0.0       0.0       0.0       0.1       0.0
 0 N  g-1             0.0       0.0       0.0       0.0       0.0       0.1
 1 N  s              49.4      49.4       8.2      20.5       0.0       0.0
 1 N  pz              0.1       0.1      40.2      27.0       0.0       0.0
 1 N  px              0.0       0.0       0.0       0.0      46.1       0.0
 1 N  py              0.0       0.0       0.0       0.0       0.0      46.1
 1 N  dz2             0.2       0.2       1.3       2.3       0.0       0.0
 1 N  dxz             0.0       0.0       0.0       0.0       2.8       0.0
 1 N  dyz             0.0       0.0       0.0       0.0       0.0       2.8
 1 N  f0              0.3       0.2       0.2       0.2       0.0       0.0
 1 N  f+1             0.0       0.0       0.0       0.0       1.0       0.0
 1 N  f-1             0.0       0.0       0.0       0.0       0.0       1.0
 1 N  g+1             0.0       0.0       0.0       0.0       0.1       0.0
 1 N  g-1             0.0       0.0       0.0       0.0       0.0       0.1

                      6         7         8         9        10        11   
                  -0.88994   0.28033   0.28033   0.86900   0.42023   0.42023
                   1.99245   0.06473   0.06473   0.00376   0.00000   0.00000
                  --------  --------  --------  --------  --------  --------
 0 N  s              39.5       0.0       0.0      18.8       0.0       0.0
 0 N  pz              8.5       0.0       0.0      27.8       0.0       0.0
 0 N  px              0.0       0.0      39.2       0.0       0.0      47.7
 0 N  py              0.0      39.2       0.0       0.0      47.7       0.0
 0 N  dz2             1.9       0.0       0.0       2.6       0.0       0.0
 0 N  dxz             0.0       0.0       6.8       0.0       0.0       1.6
 0 N  dyz             0.0       6.8       0.0       0.0       1.6       0.0
 0 N  f0              0.1       0.0       0.0       0.8       0.0       0.0
 0 N  f+1             0.0       0.0       3.5       0.0       0.0       0.7
 0 N  f-1             0.0       3.5       0.0       0.0       0.7       0.0
 0 N  g+1             0.0       0.0       0.5       0.0       0.0       0.1
 0 N  g-1             0.0       0.5       0.0       0.0       0.1       0.0
 1 N  s              39.5       0.0       0.0      18.8       0.0       0.0
 1 N  pz              8.5       0.0       0.0      27.8       0.0       0.0
 1 N  px              0.0       0.0      39.2       0.0       0.0      47.7
 1 N  py              0.0      39.2       0.0       0.0      47.7       0.0
 1 N  dz2             1.9       0.0       0.0       2.6       0.0       0.0
 1 N  dxz             0.0       0.0       6.8       0.0       0.0       1.6
 1 N  dyz             0.0       6.8       0.0       0.0       1.6       0.0
 1 N  f0              0.1       0.0       0.0       0.8       0.0       0.0
 1 N  f+1             0.0       0.0       3.5       0.0       0.0       0.7
 1 N  f-1             0.0       3.5       0.0       0.0       0.7       0.0
 1 N  g+1             0.0       0.0       0.5       0.0       0.0       0.1
 1 N  g-1             0.0       0.5       0.0       0.0       0.1       0.0

                     12        13        14        15        16        17   
                   0.42972   0.44339   0.47843   0.47843   0.56020   0.78058
                   0.00000   0.00000   0.00000   0.00000   0.00000   0.00000
                  --------  --------  --------  --------  --------  --------
 0 N  s               0.4      37.6       0.0       0.0      26.0       0.0
 0 N  pz             43.9       2.9       0.0       0.0      16.6       0.0
 0 N  px              0.0       0.0      46.6       0.0       0.0       0.0
 0 N  py              0.0       0.0       0.0      46.6       0.0       0.0
 0 N  dz2             5.5       8.8       0.0       0.0       6.9       0.0
 0 N  dxz             0.0       0.0       3.3       0.0       0.0       0.0
 0 N  dyz             0.0       0.0       0.0       3.3       0.0       0.0
 0 N  dx2y2           0.0       0.0       0.0       0.0       0.0      49.6
 0 N  f0              0.2       0.8       0.0       0.0       0.4       0.0
 0 N  f+2             0.0       0.0       0.0       0.0       0.0       0.4
 1 N  s               0.4      37.6       0.0       0.0      26.0       0.0
 1 N  pz             43.9       2.9       0.0       0.0      16.6       0.0
 1 N  px              0.0       0.0      46.6       0.0       0.0       0.0
 1 N  py              0.0       0.0       0.0      46.6       0.0       0.0
 1 N  dz2             5.5       8.8       0.0       0.0       6.9       0.0
 1 N  dxz             0.0       0.0       3.3       0.0       0.0       0.0
 1 N  dyz             0.0       0.0       0.0       3.3       0.0       0.0
 1 N  dx2y2           0.0       0.0       0.0       0.0       0.0      49.6
 1 N  f0              0.2       0.8       0.0       0.0       0.4       0.0
 1 N  f+2             0.0       0.0       0.0       0.0       0.0       0.4

                     18        19        20        21        22        23   
                   0.78058   0.87284   1.07188   1.07188   1.14511   1.14511
                   0.00000   0.00000   0.00000   0.00000   0.00000   0.00000
                  --------  --------  --------  --------  --------  --------
 0 N  s               0.0       1.7       0.0       0.0       0.0       0.0
 0 N  pz              0.0      15.3       0.0       0.0       0.0       0.0
 0 N  px              0.0       0.0       0.0       3.6       0.0       0.0
 0 N  py              0.0       0.0       3.6       0.0       0.0       0.0
 0 N  dz2             0.0      32.9       0.0       0.0       0.0       0.0
 0 N  dxz             0.0       0.0       0.0      44.7       0.0       0.0
 0 N  dyz             0.0       0.0      44.7       0.0       0.0       0.0
 0 N  dx2y2           0.0       0.0       0.0       0.0       0.0      45.4
 0 N  dxy            49.6       0.0       0.0       0.0      45.4       0.0
 0 N  f0              0.0       0.2       0.0       0.0       0.0       0.0
 0 N  f+1             0.0       0.0       0.0       1.6       0.0       0.0
 0 N  f-1             0.0       0.0       1.6       0.0       0.0       0.0
 0 N  f+2             0.0       0.0       0.0       0.0       0.0       4.3
 0 N  f-2             0.4       0.0       0.0       0.0       4.3       0.0
 0 N  g+1             0.0       0.0       0.0       0.1       0.0       0.0
 0 N  g-1             0.0       0.0       0.1       0.0       0.0       0.0
 0 N  g+2             0.0       0.0       0.0       0.0       0.0       0.3
 0 N  g-2             0.0       0.0       0.0       0.0       0.3       0.0
 1 N  s               0.0       1.7       0.0       0.0       0.0       0.0
 1 N  pz              0.0      15.3       0.0       0.0       0.0       0.0
 1 N  px              0.0       0.0       0.0       3.6       0.0       0.0
 1 N  py              0.0       0.0       3.6       0.0       0.0       0.0
 1 N  dz2             0.0      32.9       0.0       0.0       0.0       0.0
 1 N  dxz             0.0       0.0       0.0      44.7       0.0       0.0
 1 N  dyz             0.0       0.0      44.7       0.0       0.0       0.0
 1 N  dx2y2           0.0       0.0       0.0       0.0       0.0      45.4
 1 N  dxy            49.6       0.0       0.0       0.0      45.4       0.0
 1 N  f0              0.0       0.2       0.0       0.0       0.0       0.0
 1 N  f+1             0.0       0.0       0.0       1.6       0.0       0.0
 1 N  f-1             0.0       0.0       1.6       0.0       0.0       0.0
 1 N  f+2             0.0       0.0       0.0       0.0       0.0       4.3
 1 N  f-2             0.4       0.0       0.0       0.0       4.3       0.0
 1 N  g+1             0.0       0.0       0.0       0.1       0.0       0.0
 1 N  g-1             0.0       0.0       0.1       0.0       0.0       0.0
 1 N  g+2             0.0       0.0       0.0       0.0       0.0       0.3
 1 N  g-2             0.0       0.0       0.0       0.0       0.3       0.0

                     24        25        26        27        28        29   
                   1.25072   1.35223   1.35223   1.52405   2.05624   2.05624
                   0.00000   0.00000   0.00000   0.00000   0.00000   0.00000
                  --------  --------  --------  --------  --------  --------
 0 N  s              10.8       0.0       0.0       8.3       0.0       0.0
 0 N  pz             10.8       0.0       0.0      14.8       0.0       0.0
 0 N  px              0.0       0.0       5.9       0.0       0.0      45.2
 0 N  py              0.0       5.9       0.0       0.0      45.2       0.0
 0 N  dz2            27.8       0.0       0.0      18.9       0.0       0.0
 0 N  dxz             0.0       0.0      36.1       0.0       0.0       1.7
 0 N  dyz             0.0      36.1       0.0       0.0       1.7       0.0
 0 N  f0              0.5       0.0       0.0       7.5       0.0       0.0
 0 N  f+1             0.0       0.0       7.8       0.0       0.0       2.6
 0 N  f-1             0.0       7.8       0.0       0.0       2.6       0.0
 0 N  g0              0.0       0.0       0.0       0.4       0.0       0.0
 0 N  g+1             0.0       0.0       0.2       0.0       0.0       0.5
 0 N  g-1             0.0       0.2       0.0       0.0       0.5       0.0
 1 N  s              10.8       0.0       0.0       8.3       0.0       0.0
 1 N  pz             10.8       0.0       0.0      14.8       0.0       0.0
 1 N  px              0.0       0.0       5.9       0.0       0.0      45.2
 1 N  py              0.0       5.9       0.0       0.0      45.2       0.0
 1 N  dz2            27.8       0.0       0.0      18.9       0.0       0.0
 1 N  dxz             0.0       0.0      36.1       0.0       0.0       1.7
 1 N  dyz             0.0      36.1       0.0       0.0       1.7       0.0
 1 N  f0              0.5       0.0       0.0       7.5       0.0       0.0
 1 N  f+1             0.0       0.0       7.8       0.0       0.0       2.6
 1 N  f-1             0.0       7.8       0.0       0.0       2.6       0.0
 1 N  g0              0.0       0.0       0.0       0.4       0.0       0.0
 1 N  g+1             0.0       0.0       0.2       0.0       0.0       0.5
 1 N  g-1             0.0       0.2       0.0       0.0       0.5       0.0

                     30        31        32        33        34        35   
                   2.25505   2.29431   2.36852   2.36852   2.45694   2.45694
                   0.00000   0.00000   0.00000   0.00000   0.00000   0.00000
                  --------  --------  --------  --------  --------  --------
 0 N  s               0.6      19.1       0.0       0.0       0.0       0.0
 0 N  pz             15.2      29.4       0.0       0.0       0.0       0.0
 0 N  px              0.0       0.0       0.0      37.1       0.0       0.0
 0 N  py              0.0       0.0      37.1       0.0       0.0       0.0
 0 N  dz2             5.5       1.1       0.0       0.0       0.0       0.0
 0 N  dxz             0.0       0.0       0.0       1.3       0.0       0.0
 0 N  dyz             0.0       0.0       1.3       0.0       0.0       0.0
 0 N  f0             28.3       0.3       0.0       0.0       0.0       0.0
 0 N  f+1             0.0       0.0       0.0      11.5       0.0       0.0
 0 N  f-1             0.0       0.0      11.5       0.0       0.0       0.0
 0 N  f+3             0.0       0.0       0.0       0.0      49.8       0.0
 0 N  f-3             0.0       0.0       0.0       0.0       0.0      49.8
 0 N  g0              0.4       0.0       0.0       0.0       0.0       0.0
 0 N  g+1             0.0       0.0       0.0       0.1       0.0       0.0
 0 N  g-1             0.0       0.0       0.1       0.0       0.0       0.0
 0 N  g+3             0.0       0.0       0.0       0.0       0.2       0.0
 0 N  g-3             0.0       0.0       0.0       0.0       0.0       0.2
 1 N  s               0.6      19.1       0.0       0.0       0.0       0.0
 1 N  pz             15.2      29.4       0.0       0.0       0.0       0.0
 1 N  px              0.0       0.0       0.0      37.1       0.0       0.0
 1 N  py              0.0       0.0      37.1       0.0       0.0       0.0
 1 N  dz2             5.5       1.1       0.0       0.0       0.0       0.0
 1 N  dxz             0.0       0.0       0.0       1.3       0.0       0.0
 1 N  dyz             0.0       0.0       1.3       0.0       0.0       0.0
 1 N  f0             28.3       0.3       0.0       0.0       0.0       0.0
 1 N  f+1             0.0       0.0       0.0      11.5       0.0       0.0
 1 N  f-1             0.0       0.0      11.5       0.0       0.0       0.0
 1 N  f+3             0.0       0.0       0.0       0.0      49.8       0.0
 1 N  f-3             0.0       0.0       0.0       0.0       0.0      49.8
 1 N  g0              0.4       0.0       0.0       0.0       0.0       0.0
 1 N  g+1             0.0       0.0       0.0       0.1       0.0       0.0
 1 N  g-1             0.0       0.0       0.1       0.0       0.0       0.0
 1 N  g+3             0.0       0.0       0.0       0.0       0.2       0.0
 1 N  g-3             0.0       0.0       0.0       0.0       0.0       0.2

                     36        37        38        39        40        41   
                   2.49934   2.54872   2.54872   2.72925   2.72925   2.95483
                   0.00000   0.00000   0.00000   0.00000   0.00000   0.00000
                  --------  --------  --------  --------  --------  --------
 0 N  s              29.4       0.0       0.0       0.0       0.0       0.0
 0 N  pz             12.1       0.0       0.0       0.0       0.0       0.0
 0 N  px              0.0       0.0       0.0       3.9       0.0       0.0
 0 N  py              0.0       0.0       0.0       0.0       3.9       0.0
 0 N  dz2             1.0       0.0       0.0       0.0       0.0       0.0
 0 N  dxz             0.0       0.0       0.0      40.8       0.0       0.0
 0 N  dyz             0.0       0.0       0.0       0.0      40.8       0.0
 0 N  dx2y2           0.0      12.3       0.0       0.0       0.0       0.0
 0 N  dxy             0.0       0.0      12.3       0.0       0.0       0.0
 0 N  f0              7.4       0.0       0.0       0.0       0.0       0.0
 0 N  f+1             0.0       0.0       0.0       5.3       0.0       0.0
 0 N  f-1             0.0       0.0       0.0       0.0       5.3       0.0
 0 N  f+2             0.0      37.5       0.0       0.0       0.0       0.0
 0 N  f-2             0.0       0.0      37.5       0.0       0.0       0.0
 0 N  f+3             0.0       0.0       0.0       0.0       0.0      49.4
 0 N  g0              0.1       0.0       0.0       0.0       0.0       0.0
 0 N  g+2             0.0       0.2       0.0       0.0       0.0       0.0
 0 N  g-2             0.0       0.0       0.2       0.0       0.0       0.0
 0 N  g+3             0.0       0.0       0.0       0.0       0.0       0.6
 1 N  s              29.4       0.0       0.0       0.0       0.0       0.0
 1 N  pz             12.1       0.0       0.0       0.0       0.0       0.0
 1 N  px              0.0       0.0       0.0       3.9       0.0       0.0
 1 N  py              0.0       0.0       0.0       0.0       3.9       0.0
 1 N  dz2             1.0       0.0       0.0       0.0       0.0       0.0
 1 N  dxz             0.0       0.0       0.0      40.8       0.0       0.0
 1 N  dyz             0.0       0.0       0.0       0.0      40.8       0.0
 1 N  dx2y2           0.0      12.3       0.0       0.0       0.0       0.0
 1 N  dxy             0.0       0.0      12.3       0.0       0.0       0.0
 1 N  f0              7.4       0.0       0.0       0.0       0.0       0.0
 1 N  f+1             0.0       0.0       0.0       5.3       0.0       0.0
 1 N  f-1             0.0       0.0       0.0       0.0       5.3       0.0
 1 N  f+2             0.0      37.5       0.0       0.0       0.0       0.0
 1 N  f-2             0.0       0.0      37.5       0.0       0.0       0.0
 1 N  f+3             0.0       0.0       0.0       0.0       0.0      49.4
 1 N  g0              0.1       0.0       0.0       0.0       0.0       0.0
 1 N  g+2             0.0       0.2       0.0       0.0       0.0       0.0
 1 N  g-2             0.0       0.0       0.2       0.0       0.0       0.0
 1 N  g+3             0.0       0.0       0.0       0.0       0.0       0.6

                     42        43        44        45        46        47   
                   2.95483   3.04365   3.04365   3.05617   3.05617   3.06821
                   0.00000   0.00000   0.00000   0.00000   0.00000   0.00000
                  --------  --------  --------  --------  --------  --------
 0 N  s               0.0       0.0       0.0       0.0       0.0       1.6
 0 N  pz              0.0       0.0       0.0       0.0       0.0       1.2
 0 N  px              0.0       0.0       0.0       0.0       6.6       0.0
 0 N  py              0.0       0.0       0.0       6.6       0.0       0.0
 0 N  dz2             0.0       0.0       0.0       0.0       0.0      40.3
 0 N  dxz             0.0       0.0       0.0       0.0      22.5       0.0
 0 N  dyz             0.0       0.0       0.0      22.5       0.0       0.0
 0 N  dx2y2           0.0       0.0      37.5       0.0       0.0       0.0
 0 N  dxy             0.0      37.5       0.0       0.0       0.0       0.0
 0 N  f0              0.0       0.0       0.0       0.0       0.0       6.7
 0 N  f+1             0.0       0.0       0.0       0.0      20.9       0.0
 0 N  f-1             0.0       0.0       0.0      20.9       0.0       0.0
 0 N  f+2             0.0       0.0      12.0       0.0       0.0       0.0
 0 N  f-2             0.0      12.0       0.0       0.0       0.0       0.0
 0 N  f-3            49.4       0.0       0.0       0.0       0.0       0.0
 0 N  g0              0.0       0.0       0.0       0.0       0.0       0.1
 0 N  g+2             0.0       0.0       0.5       0.0       0.0       0.0
 0 N  g-2             0.0       0.5       0.0       0.0       0.0       0.0
 0 N  g-3             0.6       0.0       0.0       0.0       0.0       0.0
 1 N  s               0.0       0.0       0.0       0.0       0.0       1.6
 1 N  pz              0.0       0.0       0.0       0.0       0.0       1.2
 1 N  px              0.0       0.0       0.0       0.0       6.6       0.0
 1 N  py              0.0       0.0       0.0       6.6       0.0       0.0
 1 N  dz2             0.0       0.0       0.0       0.0       0.0      40.3
 1 N  dxz             0.0       0.0       0.0       0.0      22.5       0.0
 1 N  dyz             0.0       0.0       0.0      22.5       0.0       0.0
 1 N  dx2y2           0.0       0.0      37.5       0.0       0.0       0.0
 1 N  dxy             0.0      37.5       0.0       0.0       0.0       0.0
 1 N  f0              0.0       0.0       0.0       0.0       0.0       6.7
 1 N  f+1             0.0       0.0       0.0       0.0      20.9       0.0
 1 N  f-1             0.0       0.0       0.0      20.9       0.0       0.0
 1 N  f+2             0.0       0.0      12.0       0.0       0.0       0.0
 1 N  f-2             0.0      12.0       0.0       0.0       0.0       0.0
 1 N  f-3            49.4       0.0       0.0       0.0       0.0       0.0
 1 N  g0              0.0       0.0       0.0       0.0       0.0       0.1
 1 N  g+2             0.0       0.0       0.5       0.0       0.0       0.0
 1 N  g-2             0.0       0.5       0.0       0.0       0.0       0.0
 1 N  g-3             0.6       0.0       0.0       0.0       0.0       0.0

                     48        49        50        51        52        53   
                   3.14528   3.14528   3.19203   3.62502   3.62502   3.69397
                   0.00000   0.00000   0.00000   0.00000   0.00000   0.00000
                  --------  --------  --------  --------  --------  --------
 0 N  s               0.0       0.0      12.3       0.0       0.0      15.7
 0 N  pz              0.0       0.0       2.0       0.0       0.0       3.6
 0 N  px              0.0       0.0       0.0       2.0       0.0       0.0
 0 N  py              0.0       0.0       0.0       0.0       2.0       0.0
 0 N  dz2             0.0       0.0      16.4       0.0       0.0       2.6
 0 N  dxz             0.0       0.0       0.0       7.4       0.0       0.0
 0 N  dyz             0.0       0.0       0.0       0.0       7.4       0.0
 0 N  dx2y2           0.0      40.8       0.0       0.0       0.0       0.0
 0 N  dxy            40.8       0.0       0.0       0.0       0.0       0.0
 0 N  f0              0.0       0.0      19.1       0.0       0.0      19.4
 0 N  f+1             0.0       0.0       0.0      37.3       0.0       0.0
 0 N  f-1             0.0       0.0       0.0       0.0      37.3       0.0
 0 N  f+2             0.0       9.2       0.0       0.0       0.0       0.0
 0 N  f-2             9.2       0.0       0.0       0.0       0.0       0.0
 0 N  g0              0.0       0.0       0.1       0.0       0.0       8.8
 0 N  g+1             0.0       0.0       0.0       3.3       0.0       0.0
 0 N  g-1             0.0       0.0       0.0       0.0       3.3       0.0
 1 N  s               0.0       0.0      12.3       0.0       0.0      15.7
 1 N  pz              0.0       0.0       2.0       0.0       0.0       3.6
 1 N  px              0.0       0.0       0.0       2.0       0.0       0.0
 1 N  py              0.0       0.0       0.0       0.0       2.0       0.0
 1 N  dz2             0.0       0.0      16.4       0.0       0.0       2.6
 1 N  dxz             0.0       0.0       0.0       7.4       0.0       0.0
 1 N  dyz             0.0       0.0       0.0       0.0       7.4       0.0
 1 N  dx2y2           0.0      40.8       0.0       0.0       0.0       0.0
 1 N  dxy            40.8       0.0       0.0       0.0       0.0       0.0
 1 N  f0              0.0       0.0      19.1       0.0       0.0      19.4
 1 N  f+1             0.0       0.0       0.0      37.3       0.0       0.0
 1 N  f-1             0.0       0.0       0.0       0.0      37.3       0.0
 1 N  f+2             0.0       9.2       0.0       0.0       0.0       0.0
 1 N  f-2             9.2       0.0       0.0       0.0       0.0       0.0
 1 N  g0              0.0       0.0       0.1       0.0       0.0       8.8
 1 N  g+1             0.0       0.0       0.0       3.3       0.0       0.0
 1 N  g-1             0.0       0.0       0.0       0.0       3.3       0.0

                     54        55        56        57        58        59   
                   3.70797   3.70797   4.98437   4.98437   5.02381   5.36430
                   0.00000   0.00000   0.00000   0.00000   0.00000   0.00000
                  --------  --------  --------  --------  --------  --------
 0 N  s               0.0       0.0       0.0       0.0      11.9      12.3
 0 N  pz              0.0       0.0       0.0       0.0       9.7      16.6
 0 N  px              0.0       0.0       0.0       8.2       0.0       0.0
 0 N  py              0.0       0.0       8.2       0.0       0.0       0.0
 0 N  dz2             0.0       0.0       0.0       0.0      11.3      17.9
 0 N  dxz             0.0       0.0       0.0      23.0       0.0       0.0
 0 N  dyz             0.0       0.0      23.0       0.0       0.0       0.0
 0 N  dx2y2           0.0      10.8       0.0       0.0       0.0       0.0
 0 N  dxy            10.8       0.0       0.0       0.0       0.0       0.0
 0 N  f0              0.0       0.0       0.0       0.0       4.9       2.3
 0 N  f+1             0.0       0.0       0.0       5.5       0.0       0.0
 0 N  f-1             0.0       0.0       5.5       0.0       0.0       0.0
 0 N  f+2             0.0      32.1       0.0       0.0       0.0       0.0
 0 N  f-2            32.1       0.0       0.0       0.0       0.0       0.0
 0 N  g0              0.0       0.0       0.0       0.0      12.2       0.9
 0 N  g+1             0.0       0.0       0.0      13.3       0.0       0.0
 0 N  g-1             0.0       0.0      13.3       0.0       0.0       0.0
 0 N  g+2             0.0       7.1       0.0       0.0       0.0       0.0
 0 N  g-2             7.1       0.0       0.0       0.0       0.0       0.0
 1 N  s               0.0       0.0       0.0       0.0      11.9      12.3
 1 N  pz              0.0       0.0       0.0       0.0       9.7      16.6
 1 N  px              0.0       0.0       0.0       8.2       0.0       0.0
 1 N  py              0.0       0.0       8.2       0.0       0.0       0.0
 1 N  dz2             0.0       0.0       0.0       0.0      11.3      17.9
 1 N  dxz             0.0       0.0       0.0      23.0       0.0       0.0
 1 N  dyz             0.0       0.0      23.0       0.0       0.0       0.0
 1 N  dx2y2           0.0      10.8       0.0       0.0       0.0       0.0
 1 N  dxy            10.8       0.0       0.0       0.0       0.0       0.0
 1 N  f0              0.0       0.0       0.0       0.0       4.9       2.3
 1 N  f+1             0.0       0.0       0.0       5.5       0.0       0.0
 1 N  f-1             0.0       0.0       5.5       0.0       0.0       0.0
 1 N  f+2             0.0      32.1       0.0       0.0       0.0       0.0
 1 N  f-2            32.1       0.0       0.0       0.0       0.0       0.0
 1 N  g0              0.0       0.0       0.0       0.0      12.2       0.9
 1 N  g+1             0.0       0.0       0.0      13.3       0.0       0.0
 1 N  g-1             0.0       0.0      13.3       0.0       0.0       0.0
 1 N  g+2             0.0       7.1       0.0       0.0       0.0       0.0
 1 N  g-2             7.1       0.0       0.0       0.0       0.0       0.0

                     60        61        62        63        64        65   
                   6.66342   6.66342   6.95222   6.95222   7.05330   7.05330
                   0.00000   0.00000   0.00000   0.00000   0.00000   0.00000
                  --------  --------  --------  --------  --------  --------
 0 N  dx2y2           0.0       0.0       0.0       0.0       0.0       0.6
 0 N  dxy             0.0       0.0       0.0       0.0       0.6       0.0
 0 N  f+2             0.0       0.0       0.0       0.0       0.0       7.4
 0 N  f-2             0.0       0.0       0.0       0.0       7.4       0.0
 0 N  f+3             0.4       0.0       0.0       0.0       0.0       0.0
 0 N  f-3             0.0       0.4       0.0       0.0       0.0       0.0
 0 N  g+2             0.0       0.0       0.0       0.0       0.0      42.0
 0 N  g-2             0.0       0.0       0.0       0.0      42.0       0.0
 0 N  g+3            49.6       0.0       0.0       0.0       0.0       0.0
 0 N  g-3             0.0      49.6       0.0       0.0       0.0       0.0
 0 N  g+4             0.0       0.0      50.0       0.0       0.0       0.0
 0 N  g-4             0.0       0.0       0.0      50.0       0.0       0.0
 1 N  dx2y2           0.0       0.0       0.0       0.0       0.0       0.6
 1 N  dxy             0.0       0.0       0.0       0.0       0.6       0.0
 1 N  f+2             0.0       0.0       0.0       0.0       0.0       7.4
 1 N  f-2             0.0       0.0       0.0       0.0       7.4       0.0
 1 N  f+3             0.4       0.0       0.0       0.0       0.0       0.0
 1 N  f-3             0.0       0.4       0.0       0.0       0.0       0.0
 1 N  g+2             0.0       0.0       0.0       0.0       0.0      42.0
 1 N  g-2             0.0       0.0       0.0       0.0      42.0       0.0
 1 N  g+3            49.6       0.0       0.0       0.0       0.0       0.0
 1 N  g-3             0.0      49.6       0.0       0.0       0.0       0.0
 1 N  g+4             0.0       0.0      50.0       0.0       0.0       0.0
 1 N  g-4             0.0       0.0       0.0      50.0       0.0       0.0

                     66        67        68        69        70        71   
                   7.35211   7.35211   7.42521   7.45903   7.45903   7.67911
                   0.00000   0.00000   0.00000   0.00000   0.00000   0.00000
                  --------  --------  --------  --------  --------  --------
 0 N  s               0.0       0.0       2.0       0.0       0.0       0.0
 0 N  pz              0.0       0.0       4.7       0.0       0.0       0.0
 0 N  px              0.0       0.0       0.0       5.0       0.0       0.0
 0 N  py              0.0       0.0       0.0       0.0       5.0      19.9
 0 N  dz2             0.0       0.0      12.4       0.0       0.0       0.0
 0 N  dxz             0.0       0.0       0.0       4.9       0.0       0.0
 0 N  dyz             0.0       0.0       0.0       0.0       4.9       3.0
[...]
  1N   2f-2       0.000000  0.000000  0.000000  0.000000  0.000000  0.000000
  1N   2f+3       0.000000  0.000000  0.000000 -0.000000  0.000000  0.000000
  1N   2f-3       0.000000  0.000000  0.000000  0.000000  0.000000  0.000000
  1N   1g0        0.000000 -0.198714 -0.535726  0.000000  0.000000 -0.427839
  1N   1g+1       0.000000  0.000000  0.000000 -0.943384  0.000000  0.000000
  1N   1g-1       0.580783  0.000000  0.000000  0.000000 -0.943384  0.000000
  1N   1g+2       0.000000  0.000000 -0.000000  0.000000  0.000000 -0.000000
  1N   1g-2       0.000000  0.000000  0.000000  0.000000  0.000000  0.000000
  1N   1g+3       0.000000  0.000000  0.000000  0.000000  0.000000  0.000000
  1N   1g-3       0.000000  0.000000  0.000000  0.000000 -0.000000  0.000000
  1N   1g+4       0.000000  0.000000  0.000000  0.000000  0.000000  0.000000
  1N   1g-4       0.000000  0.000000  0.000000  0.000000  0.000000  0.000000
                    108       109   
                  32.15094  32.49771
                   0.00000   0.00000
                  --------  --------
  0N   1s        -8.039515 -7.923265
  0N   2s        -8.772238 -8.613318
  0N   3s        -3.099711 -1.874720
  0N   4s         0.698947  0.272752
  0N   5s         0.247328 -1.055281
  0N   1pz        0.103640  0.288770
  0N   1px        0.000000  0.000000
  0N   1py        0.000000  0.000000
  0N   2pz       -1.207953 -0.966321
  0N   2px        0.000000  0.000000
  0N   2py        0.000000  0.000000
  0N   3pz        1.380489 -0.428743
  0N   3px        0.000000  0.000000
  0N   3py        0.000000  0.000000
  0N   4pz        0.365205 -0.281452
  0N   4px        0.000000  0.000000
  0N   4py        0.000000  0.000000
  0N   1dz2      -0.333516  0.029067
  0N   1dxz       0.000000  0.000000
  0N   1dyz       0.000000  0.000000
  0N   1dx2y2     0.000000  0.000000
  0N   1dxy       0.000000  0.000000
  0N   2dz2       0.443389 -0.789834
  0N   2dxz       0.000000  0.000000
  0N   2dyz       0.000000  0.000000
  0N   2dx2y2    -0.000000  0.000000
  0N   2dxy       0.000000  0.000000
  0N   3dz2       1.047403 -0.052383
  0N   3dxz       0.000000  0.000000
  0N   3dyz       0.000000  0.000000
  0N   3dx2y2     0.000000  0.000000
  0N   3dxy       0.000000  0.000000
  0N   1f0       -0.068229 -0.270464
  0N   1f+1       0.000000  0.000000
  0N   1f-1       0.000000  0.000000
  0N   1f+2       0.000000 -0.000000
  0N   1f-2       0.000000  0.000000
  0N   1f+3       0.000000  0.000000
  0N   1f-3       0.000000  0.000000
  0N   2f0        0.767422 -0.284995
  0N   2f+1       0.000000  0.000000
  0N   2f-1       0.000000  0.000000
  0N   2f+2      -0.000000  0.000000
  0N   2f-2       0.000000  0.000000
  0N   2f+3       0.000000  0.000000
  0N   2f-3       0.000000  0.000000
  0N   1g0        0.238499 -0.251783
  0N   1g+1       0.000000  0.000000
  0N   1g-1       0.000000  0.000000
  0N   1g+2      -0.000000  0.000000
  0N   1g-2       0.000000  0.000000
  0N   1g+3       0.000000  0.000000
  0N   1g-3       0.000000  0.000000
  0N   1g+4      -0.000000 -0.000000
  0N   1g-4       0.000000  0.000000
  1N   1s        -8.039515  7.923265
  1N   2s        -8.772238  8.613318
  1N   3s        -3.099711  1.874720
  1N   4s         0.698947 -0.272752
  1N   5s         0.247328  1.055281
  1N   1pz       -0.103640  0.288770
  1N   1px        0.000000  0.000000
  1N   1py        0.000000  0.000000
  1N   2pz        1.207953 -0.966321
  1N   2px        0.000000  0.000000
  1N   2py        0.000000  0.000000
  1N   3pz       -1.380489 -0.428743
  1N   3px        0.000000  0.000000
  1N   3py        0.000000  0.000000
  1N   4pz       -0.365205 -0.281452
  1N   4px        0.000000  0.000000
  1N   4py        0.000000  0.000000
  1N   1dz2      -0.333516 -0.029067
  1N   1dxz       0.000000  0.000000
  1N   1dyz       0.000000  0.000000
  1N   1dx2y2     0.000000 -0.000000
  1N   1dxy       0.000000  0.000000
  1N   2dz2       0.443389  0.789834
  1N   2dxz       0.000000  0.000000
  1N   2dyz       0.000000  0.000000
  1N   2dx2y2    -0.000000 -0.000000
  1N   2dxy       0.000000  0.000000
  1N   3dz2       1.047403  0.052383
  1N   3dxz       0.000000  0.000000
  1N   3dyz       0.000000  0.000000
  1N   3dx2y2     0.000000 -0.000000
  1N   3dxy       0.000000  0.000000
  1N   1f0        0.068229 -0.270464
  1N   1f+1       0.000000  0.000000
  1N   1f-1       0.000000  0.000000
  1N   1f+2      -0.000000 -0.000000
  1N   1f-2       0.000000  0.000000
  1N   1f+3       0.000000  0.000000
  1N   1f-3       0.000000  0.000000
  1N   2f0       -0.767422 -0.284995
  1N   2f+1       0.000000  0.000000
  1N   2f-1       0.000000  0.000000
  1N   2f+2       0.000000  0.000000
  1N   2f-2       0.000000  0.000000
  1N   2f+3       0.000000  0.000000
  1N   2f-3       0.000000  0.000000
  1N   1g0        0.238499  0.251783
  1N   1g+1       0.000000  0.000000
  1N   1g-1       0.000000  0.000000
  1N   1g+2      -0.000000 -0.000000
  1N   1g-2       0.000000  0.000000
  1N   1g+3       0.000000  0.000000
  1N   1g-3       0.000000  0.000000
  1N   1g+4      -0.000000  0.000000
  1N   1g-4       0.000000  0.000000



-------------------------------------------------------------
 Forming the transition densities       ... done in 0.0 sec
-------------------------------------------------------------
Memory for address arrays  		      ... done
Make address arrays			      ... done
Memory for buffers 			      ... done
Setting up spin-function prototypes	      ... (MAXOPEN=6) 0 2 4 6 8 done
Trivial cases - DOMO's			      ... done (  0.0 MB)
Number of open shells			    ...  0
domo->virtual excitations			... done (  0.0 MB)
domo->somo excitations				... done (  0.0 MB)
somo->virtual excitations			... done (  0.0 MB)
somo->somo excitations				... done (  0.0 MB)
Number of open shells			    ...  2
domo->virtual excitations			... done (  0.0 MB)
domo->somo excitations				... done (  0.0 MB)
somo->virtual excitations			... done (  0.0 MB)
somo->somo excitations				... done (  0.0 MB)
Number of open shells			    ...  4
domo->virtual excitations			... done (  0.0 MB)
domo->somo excitations				... done (  0.0 MB)
somo->virtual excitations			... done (  0.0 MB)
somo->somo excitations				... done (  0.0 MB)
Number of open shells			    ...  6
domo->virtual excitations			... done (  0.0 MB)
domo->somo excitations				... done (  0.0 MB)
somo->virtual excitations			... done (  0.1 MB)
somo->somo excitations				... done (  0.1 MB)
Coupling container construction done

--------------
CASSCF TIMINGS
--------------

Total time                       ...       21.6 sec
Sum of individual times          ...       21.4 sec ( 99.3%)

Calculation of AO operators
   F(Core) operator              ...        4.1 sec ( 19.0%)
   G(Act) operator               ...        4.1 sec ( 19.1%)
Calculation of MO transformed quantities
   J(MO) operators               ...       13.1 sec ( 60.9%)
   AO->MO one electron integrals ...        0.0 sec (  0.0%)
Configuration interaction steps
   CI-setup phase                ...        0.0 sec (  0.0%)
   CI-solution phase             ...        0.0 sec (  0.2%)
   Generation of densities       ...        0.0 sec (  0.0%)
Orbital improvement steps
   Orbital gradient              ...        0.0 sec (  0.0%)
   O(1) converger                ...        0.0 sec (  0.0%)
CPCM steps
   Total CPCM time               ...        0.0 sec (  0.0%)
Properties                       ...        0.0 sec (  0.0%)
   SOC integral calculation      ...        0.0 sec (  0.0%)
   SSC RMEs (incl. integrals)    ...        0.0 sec (  0.0%)
   SOC RMEs                      ...        0.0 sec (  0.0%)

Maximum memory used throughout the entire CASSCF-calculation: 47.2 MB

------------------------------------------------------------------------------
                         ORCA PROPERTY INTEGRAL CALCULATIONS
------------------------------------------------------------------------------

GBWName                                   ... n2.gbw
Number of atoms                           ...      2
Number of basis functions                 ...    124
Max core memory                           ...   4096 MB

Dipole integrals                          ... YES
Quadrupole integrals                      ...  NO
Linear momentum integrals                 ...  NO
Angular momentum integrals                ... YES
Higher moments length integrals           ...  NO
Higher moments velocity integrals         ...  NO
Kinetic energy integrals                  ...  NO
GIAO right hand sides                     ...  NO
GIAO dipole derivative integrals          ...  NO
SOC integrals                             ...  NO
EPR diamagnetic integrals (GIAO)          ...  NO
EPR gauge integrals                       ...  NO
Field gradient integrals                  ...  NO (   0 nuclei)
Spin-dipole/Fermi contact integrals       ...  NO (   0 nuclei)
Contact density integrals                 ...  NO (   0 nuclei)
Nucleus-orbit integrals                   ...  NO (   0 nuclei)
Geometric perturbations                   ...  NO (   2 nuclei)

Choice of electric origin   ... Center of mass
Position of electric origin ... (  0.0000,  0.0000, -0.0000) 
Choice of magnetic origin   ... GIAO
Position of magnetic origin ... (  0.0000,  0.0000,  0.0000) 

Calculating integrals                     ... Electric Dipole (Length)     done (  0.0 sec)
Calculating integrals                     ... Angular Momentum  (ElOri)    done (  0.0 sec)

Property integrals calculated in   0.0 sec

Maximum memory used throughout the entire PROPINT-calculation: 12.5 MB
-------------------------------------------------------------------------------
                              ORCA-CASSCF
-------------------------------------------------------------------------------

Symmetry handling      UseSym     ... ON
Point group                       ... D(inf)h
Used point group                  ... D2h
Number of irreps                  ... 8
   Irrep   Ag has   22 SALCs (ofs=   0) #(closed)=   2 #(active)=   1
   Irrep  B1g has    7 SALCs (ofs=  22) #(closed)=   0 #(active)=   0
   Irrep  B2g has   13 SALCs (ofs=  29) #(closed)=   0 #(active)=   1
   Irrep  B3g has   13 SALCs (ofs=  42) #(closed)=   0 #(active)=   1
   Irrep   Au has    7 SALCs (ofs=  55) #(closed)=   0 #(active)=   0
   Irrep  B1u has   22 SALCs (ofs=  62) #(closed)=   2 #(active)=   1
   Irrep  B2u has   13 SALCs (ofs=  84) #(closed)=   0 #(active)=   1
   Irrep  B3u has   13 SALCs (ofs=  97) #(closed)=   0 #(active)=   1
 Symmetries of active orbitals:
   MO =    4  IRREP= 7 (B3u)
   MO =    5  IRREP= 6 (B2u)
   MO =    6  IRREP= 0 (Ag)
   MO =    7  IRREP= 3 (B3g)
   MO =    8  IRREP= 2 (B2g)
   MO =    9  IRREP= 5 (B1u)

Setting up the integral package     ... done


==========================================
CASSCF UV, CD spectra and dipole moments
==========================================

--------------
CASSCF TIMINGS
--------------

Total time                       ...        0.0 sec
Sum of individual times          ...        0.0 sec ( 96.8%)

Calculation of AO operators
Calculation of MO transformed quantities
Configuration interaction steps
   CI-setup phase                ...        0.0 sec ( 96.8%)
Orbital improvement steps

Maximum memory used throughout the entire CASSCF-calculation: 31.5 MB

-------------------------   --------------------
FINAL SINGLE POINT ENERGY      -109.092922361710
-------------------------   --------------------


------------------------------------------------------------------------------
                              ORCA PROPERTY CALCULATIONS
------------------------------------------------------------------------------

GBWName                                 ... n2.gbw
Number of atoms                         ...      2
Number of basis functions               ...    124
Max core memory                         ...   4096 MB

Electric properties:
Dipole moment                           ... YES
Quadrupole moment                       ...  NO
Static polarizability (Dipole/Dipole)   ...  NO
Static polarizability (Dipole/Quad.)    ...  NO
Static polarizability (Quad./Quad.)     ...  NO
Static polarizability (Velocity)        ...  NO
Static hyperpolarizability              ...  NO

Atomic electric properties:
Dipole moment                           ...  NO
Quadrupole moment                       ...  NO
Static polarizability                   ...  NO

Choice of electric origin               ... Center of mass
Position of electric origin             ...     0.000000     0.000000    -0.000000

General magnetic properties:
Magnetizability                         ...  NO

EPR properties:
g-Tensor (aka g-matrix)                 ...  NO
Zero-Field splitting spin-orbit         ...  NO
Zero-field splitting spin-spin          ...  NO
Hyperfine couplings                     ...  NO (   0 nuclei)
Quadrupole couplings                    ...  NO (   0 nuclei)
Contact density                         ...  NO (   0 nuclei)

NMR properties:
Chemical shifts                         ...  NO (   0 nuclei)
Spin-rotation constants                 ...  NO (   0 nuclei)
Spin-spin couplings                     ...  NO (   0 nuclei,    0 pairs)

Choice of magnetic origin               ... GIAO
Position of magnetic origin             ...     0.000000     0.000000     0.000000

Properties with geometric perturbations:
SCF Hessian                             ...  NO
IR spectrum                             ...  NO
VCD spectrum                            ...  NO
X-ray spectroscopy properties:
SCF XES/XAS/RIXS spectra                ...  NO

SCF SOC stabilization energy            ...  NO
Diagonal Born-Oppenheimer correction    ...  NO

-------------
DIPOLE MOMENT
-------------

Method             : CASSCF
Type of density    : Electron Density
Level              : Relaxed density
State              :   0
Multiplicity       :   1
Irrep              :   0
Energy             :  -109.0929223617097534 Eh
Basis              : AO
                                X                 Y                 Z
Electronic contribution:      0.000000000      -0.000000000      -0.000000000
Nuclear contribution   :      0.000000000       0.000000000      -0.000000000
                        -----------------------------------------
Total Dipole Moment    :      0.000000000      -0.000000000      -0.000000000
                        -----------------------------------------
Magnitude (a.u.)       :      0.000000000
Magnitude (Debye)      :      0.000000000



--------------------
Rotational spectrum 
--------------------
 
Rotational constants in cm-1:             0.000000             1.996534             1.996534 
Rotational constants in MHz :             0.000000         59854.583471         59854.583471 

Dipole components along the rotational axes: 
x,y,z [a.u.] :    -0.000000    -0.000000     0.000000 
x,y,z [Debye]:    -0.000000    -0.000000     0.000000 

 

Dipole moment calculation done in   0.0 sec 

Maximum memory used throughout the entire PROP-calculation: 7.3 MB

--------------------------------
SUGGESTED CITATIONS FOR THIS RUN
--------------------------------

Below you find a list of papers that are relevant to this ORCA run
We neither can nor want to force you to cite these papers, but we appreciate if you do
You receive ORCA, which is the product of decades of hard work by many enthusiastic individuals, for free
The only thing we kindly ask in return is that you cite our papers,
We deeply appreciate it, if you show your appreciation for ORCA by not just citing the generic ORCA reference.

Please note that relegating all ORCA citations to the supporting information does *not* help us.
SI sections are not indexed - citations you put there will not count into any citation statistics
But we need these citations in order to attract the funding resources that allow us to do what we are doing

Therefore, if you are a happy ORCA user, please consider citing a few of the papers listed below in the main body of your paper

In addition to the list printed below, the program has created the file n2.bibtex that contains the list in bibtex format
You can import this file easily into all common literature databanks and citation aid programs

It goes without saying that in many instances, there are alternative algorithms to achieve similar
results as the ones you have gotten from ORCA. It is, of course, also the case that in some instances
ORCA just re-implements algorithms worked out by others. We are fully aware of that and we are also
fully appreciative of our colleagues work. Hence this citation list should not be read as indicating
that the listed papers, which are focused on our own work, are the only ones worth citing. It simply
meant to make it easier for users to cite ORCA specific papers. It is not a substitute for doing your
own literature research and citing the relevant literature in a scientifically appropriate manner.

List of essential papers. We consider these as the minimum necessary citations

  1. Neese, F.
     Software update: the ORCA program system, version 6.0
     WIRES Comput. Molec. Sci. 2025 15(1), e70019
     doi.org/10.1002/wcms.70019

List of papers to cite with high priority. The work reported in these papers was absolutely
necessary for this run to complete.
Our perspective: the developers of density functionals and basis sets usually get cited in chemistry papers
Good! But without the algorithms to do something with them, the functionals or basis sets would not do anything.
Hence, in our opinion, the algorithm design and method developments papers are equally worthy of getting cited

  1. Kollmar, C.; Sivalingam, K.; Helmich-Paris, B.; Angeli, C.; Neese, F.
     A perturbation-based super-CI approach for the orbital optimization of a CASSCF wave function
     J. Comput. Chem. 2019 40 , 1463-1470
     doi.org/10.1002/jcc.25801
  2. Neese, F.
     The SHARK Integral Generation and Digestion System
     J. Comp. Chem. 2022 44(3), 381
     doi.org/10.1002/jcc.26942
  3. Ugandi, M.; Roemelt, M.
     A recursive formulation of one-electron coupling coefficients for spin-adapted configuration interaction calculations featuring many unpaired electrons
     Int. J. Quantum Chem. 2023 123 , e27045
     doi.org/10.1002/qua.27045

List of suggested additional citations. These are papers that are important in the 'surrounding' of 
of this run, or papers that preceded the highly important papers. If you like your results we are grateful for a citation.

  1. Neese, F.
     The ORCA program system
     WIRES Comput. Molec. Sci. 2012 2(1), 73-78
     doi.org/10.1002/wcms.81
  2. Neese, F.
     Software update: the ORCA program system, version 4.0
     WIRES Comput. Molec. Sci. 2018 8(1), 1-6
     doi.org/10.1002/wcms.1327
  3. Neese, F.; Wennmohs, F.; Becker, U.; Riplinger, C.
     The ORCA quantum chemistry program package
     J. Chem. Phys. 2020 152(22), 224108
     doi.org/10.1063/5.0004608
  4. Neese, F.
     Software update: The ORCA program system—Version 5.0
     WIRES Comput. Molec. Sci. 2022 12(1), e1606
     doi.org/10.1002/wcms.1606

List of optional additional citations

  1. Neese, F.
     Approximate second-order SCF convergence for spin unrestricted wavefunctions
     Chem. Phys. Lett. 2000 325(1-3), 93-98
     doi.org/10.1016/s0009-2614(00)00662-x

Timings for individual modules:

Sum of individual times          ...       22.332 sec (=   0.372 min)
Startup calculation              ...        0.224 sec (=   0.004 min)   1.0 %
SCF iterations                   ...        0.120 sec (=   0.002 min)   0.5 %
CASSCF iterations                ...       21.774 sec (=   0.363 min)  97.5 %
Property integrals               ...        0.108 sec (=   0.002 min)   0.5 %
Property calculations            ...        0.106 sec (=   0.002 min)   0.5 %
                             ****ORCA TERMINATED NORMALLY****
TOTAL RUN TIME: 0 days 0 hours 0 minutes 22 seconds 438 msec
