[Molden Format]
[Title]
 ch3
[Atoms] AU
C    1   6       0.358528636000000012      0.360868438999999985      0.360868438999999985
H    2   1      -0.307236803000000003     -0.309472858000000017      2.169056129999999971
H    3   1      -0.307236803000000003      2.169056129999999971     -0.309472858000000017
H    4   1       2.160788909999999952     -0.315607772000000009     -0.315607772000000009

[GTO]
  1 0
 s    3 1.00
       71.6168373000         0.1543289670
       13.0450963000         0.5353281420
        3.5305121600         0.4446345420
 s    3 1.00
        2.9412493600        -0.0999672292
        0.6834830960         0.3995128260
        0.2222899160         0.7001154690
 p    3 1.00
        2.9412493600         0.1559162750
        0.6834830960         0.6076837190
        0.2222899160         0.3919573930

  2 0
 s    3 1.00
        3.4252509100         0.1543289670
        0.6239137300         0.5353281420
        0.1688554040         0.4446345420

  3 0
 s    3 1.00
        3.4252509100         0.1543289670
        0.6239137300         0.5353281420
        0.1688554040         0.4446345420

  4 0
 s    3 1.00
        3.4252509100         0.1543289670
        0.6239137300         0.5353281420
        0.1688554040         0.4446345420

[MO]
 Ene= -1.10094533999999999e+01
 Sym= 1a
 Spin= Alpha
 Occup= 1.00000000000000000e+00
   1 9.91912303999999967e-01
   2 3.68365244000000008e-02
   3 9.23239012000000021e-04
   4 9.05953703000000042e-04
   5 9.05953703000000042e-04
   6 -7.36810755999999997e-03
   7 -7.36810755999999997e-03
   8 -7.36919428999999963e-03
 Ene= -9.07622406999999964e-01
 Sym= 1a
 Spin= Alpha
 Occup= 1.00000000000000000e+00
   1 -2.34519567000000012e-01
   2 7.11645349999999954e-01
   3 4.43830319000000032e-03
   4 4.24951328999999961e-03
   5 4.24951328999999961e-03
   6 1.88304779000000005e-01
   7 1.88304779000000005e-01
   8 1.88248107999999997e-01
 Ene= -5.37709619999999999e-01
 Sym= 1a
 Spin= Alpha
 Occup= 1.00000000000000000e+00
   1 4.90158807000000019e-16
   2 -2.27927410000000011e-15
   3 -1.70527349999999996e-15
   4 4.11433996999999996e-01
   5 -4.11433996999999996e-01
   6 -4.05665989999999976e-01
   7 4.05665989999999976e-01
   8 -2.31301381000000019e-15
 Ene= -5.37273274999999995e-01
 Sym= 1a
 Spin= Alpha
 Occup= 1.00000000000000000e+00
   1 7.55477747999999970e-05
   2 -2.72389062000000020e-04
   3 4.73783665999999992e-01
   4 -2.39037858999999991e-01
   5 -2.39037858999999991e-01
   6 -2.34257831000000000e-01
   7 -2.34257831000000000e-01
   8 4.68659674000000026e-01
 Ene= -3.63936539999999975e-01
 Sym= 1a
 Spin= Alpha
 Occup= 1.00000000000000000e+00
   1 3.08378553999999992e-02
   2 -1.65495542999999995e-01
   3 5.70715278999999964e-01
   4 5.65524565000000035e-01
   5 5.65524565000000035e-01
   6 6.48520244999999940e-02
   7 6.48520244999999940e-02
   8 6.47116365000000027e-02
 Ene= 6.48361367000000022e-01
 Sym= 1a
 Spin= Alpha
 Occup= 0.00000000000000000e+00
   1 -2.19876799000000012e-01
   2 1.41188511000000005e+00
   3 1.35304792000000007e-01
   4 1.37148382000000013e-01
   5 1.37148382000000013e-01
   6 -7.62493395000000018e-01
   7 -7.62493395000000018e-01
   8 -7.58055708999999966e-01
 Ene= 7.58140703999999999e-01
 Sym= 1a
 Spin= Alpha
 Occup= 0.00000000000000000e+00
   1 6.02953489000000037e-04
   2 -3.88201281999999998e-03
   3 -9.23289817999999984e-01
   4 4.65383568999999997e-01
   5 4.65383568999999997e-01
   6 -5.11599644000000020e-01
   7 -5.11599644000000020e-01
   8 1.02987680999999998e+00
 Ene= 7.59223156999999982e-01
 Sym= 1a
 Spin= Alpha
 Occup= 0.00000000000000000e+00
   1 2.48950777000000010e-15
   2 -1.62249873000000007e-14
   3 -4.97507653999999998e-13
   4 8.02477678999999999e-01
   5 -8.02477678999999999e-01
   6 8.90423838999999995e-01
   7 -8.90423838999999995e-01
   8 5.61173440000000008e-13
 Ene= -1.09780990999999997e+01
 Sym= 1a
 Spin= Beta
 Occup= 1.00000000000000000e+00
   1 9.92938149999999964e-01
   2 3.22871971999999993e-02
   3 9.60710419999999984e-04
   4 9.44075068000000002e-04
   5 9.44075068000000002e-04
   6 -6.40788141999999988e-03
   7 -6.40788141999999988e-03
   8 -6.40896377999999965e-03
 Ene= -8.01569082999999960e-01
 Sym= 1a
 Spin= Beta
 Occup= 1.00000000000000000e+00
   1 -2.09925478999999998e-01
   2 5.76154218999999967e-01
   3 3.37006253000000019e-02
   4 3.31937049000000026e-02
   5 3.31937049000000026e-02
   6 2.56084837000000010e-01
   7 2.56084837000000010e-01
   8 2.56063658000000027e-01
 Ene= -5.19454721999999980e-01
 Sym= 1a
 Spin= Beta
 Occup= 1.00000000000000000e+00
   1 -2.62530260000000001e-16
   2 1.03890787999999994e-15
   3 -4.35499446000000024e-13
   4 -3.66798173000000005e-01
   5 3.66798173000000005e-01
   6 4.53895633000000021e-01
   7 -4.53895633000000021e-01
   8 -5.40989436999999994e-13
 Ene= -5.18988805999999969e-01
 Sym= 1a
 Spin= Beta
 Occup= 1.00000000000000000e+00
   1 8.97538663999999947e-05
   2 -2.80496409000000025e-04
   3 4.22311932999999973e-01
   4 -2.13125171000000002e-01
   5 -2.13125171000000002e-01
   6 -2.62191251999999986e-01
   7 -2.62191251999999986e-01
   8 5.24368146000000035e-01
 Ene= 3.28562907000000015e-01
 Sym= 1a
 Spin= Beta
 Occup= 0.00000000000000000e+00
   1 4.80634372999999976e-02
   2 -2.23451659999999996e-01
   3 5.68272321999999996e-01
   4 5.63036156999999982e-01
   5 5.63036156999999982e-01
   6 5.48082027000000027e-02
   7 5.48082027000000027e-02
   8 5.46934398000000002e-02
 Ene= 7.04456296000000037e-01
 Sym= 1a
 Spin= Beta
 Occup= 0.00000000000000000e+00
   1 -2.36391387000000008e-01
   2 1.46480863000000006e+00
   3 1.40521556999999991e-01
   4 1.43705531999999997e-01
   5 1.43705531999999997e-01
   6 -7.43655135999999994e-01
   7 -7.43655135999999994e-01
   8 -7.38011121999999964e-01
 Ene= 7.88139770000000017e-01
 Sym= 1a
 Spin= Beta
 Occup= 0.00000000000000000e+00
   1 8.53322229999999948e-04
   2 -5.32303496000000043e-03
   3 -9.48058622999999989e-01
   4 4.77683483000000020e-01
   5 4.77683483000000020e-01
   6 -4.97327067000000012e-01
   7 -4.97327067000000012e-01
   8 1.00319113000000004e+00
 Ene= 7.89228899000000039e-01
 Sym= 1a
 Spin= Beta
 Occup= 0.00000000000000000e+00
   1 -9.39283646000000004e-16
   2 5.27342894000000037e-15
   3 -9.83649114999999968e-13
   4 8.23837035000000051e-01
   5 -8.23837035000000051e-01
   6 8.66832315999999992e-01
   7 -8.66832315999999992e-01
   8 1.03624546999999992e-12
