[Molden Format]
[Title]
 H2O Optimization
[Atoms] AU
O    1   8      -4.447341009999999706      3.396979990000000171      0.000000000000000000
H    2   1      -2.584014949999999811      3.551361940000000050      0.000000000000000000
H    3   1      -4.923805190000000387      5.204962199999999761      0.000000000000000000

[GTO]
  1 0
 s    3 1.00
      130.7093210000         0.1543289670
       23.8088661000         0.5353281420
        6.4436083100         0.4446345420
 s    3 1.00
        5.0331513200        -0.0999672292
        1.1695961200         0.3995128260
        0.3803889600         0.7001154690
 p    3 1.00
        5.0331513200         0.1559162750
        1.1695961200         0.6076837190
        0.3803889600         0.3919573930

  2 0
 s    3 1.00
        3.4252509100         0.1543289670
        0.6239137300         0.5353281420
        0.1688554040         0.4446345420

  3 0
 s    3 1.00
        3.4252509100         0.1543289670
        0.6239137300         0.5353281420
        0.1688554040         0.4446345420

[MO]
 Ene= -2.02515758999999989e+01
 Sym= 1a
 Spin= Alpha
 Occup= 2.00000000000000000e+00
   1 9.94216400000000000e-01
   2 2.58471732000000003e-02
   3 2.40341138000000005e-03
   4 3.40074842999999990e-03
   5 1.40563195999999997e-15
   6 -5.58389935000000014e-03
   7 -5.58389935000000014e-03
 Ene= -1.25754908999999993e+00
 Sym= 1a
 Spin= Alpha
 Occup= 2.00000000000000000e+00
   1 -2.33765657999999987e-01
   2 8.44448843999999976e-01
   3 7.08954375000000053e-02
   4 1.00314722999999995e-01
   5 -3.37896997000000016e-16
   6 1.55594636000000008e-01
   7 1.55594636000000008e-01
 Ene= -5.93856648000000042e-01
 Sym= 1a
 Spin= Alpha
 Occup= 2.00000000000000000e+00
   1 4.51169862999999991e-13
   2 -2.44399152000000020e-12
   3 5.00352679000000022e-01
   4 -3.53614313999999985e-01
   5 8.41757303999999943e-18
   6 4.49221617999999989e-01
   7 -4.49221617999999989e-01
 Ene= -4.59728939000000003e-01
 Sym= 1a
 Spin= Alpha
 Occup= 2.00000000000000000e+00
   1 1.04035680000000005e-01
   2 -5.38166296999999960e-01
   3 4.36251698000000021e-01
   4 6.17281873000000036e-01
   5 1.03938860999999997e-14
   6 2.95101687000000001e-01
   7 2.95101687000000001e-01
 Ene= -3.92616748000000015e-01
 Sym= 1a
 Spin= Alpha
 Occup= 2.00000000000000000e+00
   1 -1.36271026999999996e-15
   2 6.80657020999999965e-15
   3 -3.77872168999999969e-15
   4 -5.33789248999999999e-15
   5 1.00000000000000000e+00
   6 -3.99442103999999974e-15
   7 -3.98656899999999980e-15
 Ene= 5.81794346000000018e-01
 Sym= 1a
 Spin= Alpha
 Occup= 0.00000000000000000e+00
   1 -1.25820500000000002e-01
   2 8.20148027000000002e-01
   3 4.40678909000000008e-01
   4 6.23546232000000034e-01
   5 -1.16667856999999992e-15
   6 -7.69165714000000000e-01
   7 -7.69165714000000000e-01
 Ene= 6.92676994000000046e-01
 Sym= 1a
 Spin= Alpha
 Occup= 0.00000000000000000e+00
   1 1.67024526999999993e-12
   2 -1.18353402999999997e-11
   3 -7.83816582000000039e-01
   4 5.53946794999999992e-01
   5 1.12304331000000008e-19
   6 8.14647765999999995e-01
   7 -8.14647765999999995e-01
