[Molden Format]
[Title]
 o2_cc_pvtz_cart
[Atoms] AU
O    1   8       0.000000000000000000      0.000000000000000000      1.091228300000000040
O    2   8       0.000000000000000134      0.000000000000000000     -1.091228300000000040

[GTO]
  1 0
 s    7 1.00
    15330.0000000000         0.0005198089
     2299.0000000000         0.0040202562
      522.4000000000         0.0207128267
      147.3000000000         0.0810105536
       47.5500000000         0.2359629850
       16.7600000000         0.4426534460
        6.2070000000         0.3570644230
 s    7 1.00
    15330.0000000000         0.0000091338
     2299.0000000000         0.0000607363
      522.4000000000         0.0002687823
       47.5500000000        -0.0069694003
       16.7600000000        -0.0606456900
        6.2070000000        -0.1655195360
        0.6882000000         1.0715136900
 s    1 1.00
        1.7520000000         1.0000000000
 s    1 1.00
        0.2384000000         1.0000000000
 p    3 1.00
       34.4600000000         0.0411634896
        7.7490000000         0.2577628360
        2.2800000000         0.8024192740
 p    1 1.00
        0.7156000000         1.0000000000
 p    1 1.00
        0.2140000000         1.0000000000
 d    1 1.00
        2.3140000000         1.0000000000
 d    1 1.00
        0.6450000000         1.0000000000
 f    1 1.00
        1.4280000000         1.0000000000

  2 0
 s    7 1.00
    15330.0000000000         0.0005198089
     2299.0000000000         0.0040202562
      522.4000000000         0.0207128267
      147.3000000000         0.0810105536
       47.5500000000         0.2359629850
       16.7600000000         0.4426534460
        6.2070000000         0.3570644230
 s    7 1.00
    15330.0000000000         0.0000091338
     2299.0000000000         0.0000607363
      522.4000000000         0.0002687823
       47.5500000000        -0.0069694003
       16.7600000000        -0.0606456900
        6.2070000000        -0.1655195360
        0.6882000000         1.0715136900
 s    1 1.00
        1.7520000000         1.0000000000
 s    1 1.00
        0.2384000000         1.0000000000
 p    3 1.00
       34.4600000000         0.0411634896
        7.7490000000         0.2577628360
        2.2800000000         0.8024192740
 p    1 1.00
        0.7156000000         1.0000000000
 p    1 1.00
        0.2140000000         1.0000000000
 d    1 1.00
        2.3140000000         1.0000000000
 d    1 1.00
        0.6450000000         1.0000000000
 f    1 1.00
        1.4280000000         1.0000000000

[MO]
 Ene= -2.07299533999999994e+01
 Sym= 1a
 Spin= Alpha
 Occup= 2.00000000000000000e+00
   1 6.90554672999999952e-01
   2 -1.09386989000000000e-02
   3 3.20682070000000013e-02
   4 -1.53516185000000002e-03
   5 0.00000000000000000e+00
   6 0.00000000000000000e+00
   7 -1.73008059999999993e-03
   8 0.00000000000000000e+00
   9 0.00000000000000000e+00
  10 9.16667865000000037e-04
  11 0.00000000000000000e+00
  12 0.00000000000000000e+00
  13 -1.69293657999999993e-04
  14 1.41588141999999997e-03
  15 1.12086835000000003e-03
  16 1.68010837000000007e-03
  17 0.00000000000000000e+00
  18 0.00000000000000000e+00
  19 0.00000000000000000e+00
  20 2.62968033000000011e-03
  21 2.48615569000000015e-03
  22 2.27955096000000005e-03
  23 0.00000000000000000e+00
  24 0.00000000000000000e+00
  25 0.00000000000000000e+00
  26 0.00000000000000000e+00
  27 0.00000000000000000e+00
  28 -1.99877479000000008e-04
  29 0.00000000000000000e+00
  30 0.00000000000000000e+00
  31 -1.51783365000000012e-04
  32 0.00000000000000000e+00
  33 0.00000000000000000e+00
  34 -2.27738097999999995e-04
  35 0.00000000000000000e+00
  36 6.90554672999999952e-01
  37 -1.09386989000000000e-02
  38 3.20682070000000013e-02
  39 -1.53516185000000002e-03
  40 0.00000000000000000e+00
  41 0.00000000000000000e+00
  42 1.73008059999999993e-03
  43 0.00000000000000000e+00
  44 0.00000000000000000e+00
  45 -9.16667865000000037e-04
  46 0.00000000000000000e+00
  47 0.00000000000000000e+00
  48 1.69293657999999993e-04
  49 1.41588141999999997e-03
  50 1.12086835000000003e-03
  51 1.68010837000000007e-03
  52 0.00000000000000000e+00
  53 0.00000000000000000e+00
  54 0.00000000000000000e+00
  55 2.62968033000000011e-03
  56 2.48615569000000015e-03
  57 2.27955096000000005e-03
  58 0.00000000000000000e+00
  59 0.00000000000000000e+00
  60 0.00000000000000000e+00
  61 0.00000000000000000e+00
  62 0.00000000000000000e+00
  63 1.99877479000000008e-04
  64 0.00000000000000000e+00
  65 0.00000000000000000e+00
  66 1.51783365000000012e-04
  67 0.00000000000000000e+00
  68 0.00000000000000000e+00
  69 2.27738097999999995e-04
  70 0.00000000000000000e+00
 Ene= -2.07287682000000011e+01
 Sym= 1a
 Spin= Alpha
 Occup= 2.00000000000000000e+00
   1 6.90442981999999983e-01
   2 -1.32117617999999992e-02
   3 3.22453657000000005e-02
   4 -5.99903255000000003e-03
   5 0.00000000000000000e+00
   6 0.00000000000000000e+00
   7 -2.10927293999999986e-03
   8 0.00000000000000000e+00
   9 0.00000000000000000e+00
  10 6.67341772999999975e-03
  11 0.00000000000000000e+00
  12 0.00000000000000000e+00
  13 1.68334040000000010e-03
  14 1.76856264000000004e-03
  15 1.44188541000000005e-03
  16 1.57657428000000004e-03
  17 0.00000000000000000e+00
  18 0.00000000000000000e+00
  19 0.00000000000000000e+00
  20 3.42930035000000005e-03
  21 3.14869703000000009e-03
  22 4.73521279000000002e-06
  23 0.00000000000000000e+00
  24 0.00000000000000000e+00
  25 0.00000000000000000e+00
  26 0.00000000000000000e+00
  27 0.00000000000000000e+00
  28 -9.56840373999999949e-04
  29 0.00000000000000000e+00
  30 0.00000000000000000e+00
  31 -7.98933025000000052e-04
  32 0.00000000000000000e+00
  33 0.00000000000000000e+00
  34 -8.08887351000000003e-04
  35 0.00000000000000000e+00
  36 -6.90442981999999983e-01
  37 1.32117617999999992e-02
  38 -3.22453657000000005e-02
  39 5.99903255000000003e-03
  40 0.00000000000000000e+00
  41 0.00000000000000000e+00
  42 -2.10927293999999986e-03
  43 0.00000000000000000e+00
  44 0.00000000000000000e+00
  45 6.67341772999999975e-03
  46 0.00000000000000000e+00
  47 0.00000000000000000e+00
  48 1.68334040000000010e-03
  49 -1.76856264000000004e-03
  50 -1.44188541000000005e-03
  51 -1.57657428000000004e-03
  52 0.00000000000000000e+00
  53 0.00000000000000000e+00
  54 0.00000000000000000e+00
  55 -3.42930035000000005e-03
  56 -3.14869703000000009e-03
  57 -4.73521279000000002e-06
  58 0.00000000000000000e+00
  59 0.00000000000000000e+00
  60 0.00000000000000000e+00
  61 0.00000000000000000e+00
  62 0.00000000000000000e+00
  63 -9.56840373999999949e-04
  64 0.00000000000000000e+00
  65 0.00000000000000000e+00
  66 -7.98933025000000052e-04
  67 0.00000000000000000e+00
  68 0.00000000000000000e+00
  69 -8.08887351000000003e-04
  70 0.00000000000000000e+00
 Ene= -1.70510736999999990e+00
 Sym= 1a
 Spin= Alpha
 Occup= 2.00000000000000000e+00
   1 -1.53089590999999997e-01
   2 3.48597926999999974e-01
   3 9.87762546999999963e-02
   4 1.35883463000000010e-01
   5 0.00000000000000000e+00
   6 0.00000000000000000e+00
   7 -9.54552872999999968e-02
   8 0.00000000000000000e+00
   9 0.00000000000000000e+00
  10 -9.80215019999999965e-02
  11 0.00000000000000000e+00
  12 0.00000000000000000e+00
  13 -2.01987754000000005e-02
  14 -3.69516464999999992e-03
  15 -3.83149036000000019e-03
  16 1.46621640000000001e-02
  17 0.00000000000000000e+00
  18 0.00000000000000000e+00
  19 0.00000000000000000e+00
  20 -8.15464584999999950e-03
  21 -4.43436746999999968e-03
  22 2.36590334999999992e-02
  23 0.00000000000000000e+00
  24 0.00000000000000000e+00
  25 0.00000000000000000e+00
  26 0.00000000000000000e+00
  27 0.00000000000000000e+00
  28 -1.52089709000000003e-02
  29 0.00000000000000000e+00
  30 0.00000000000000000e+00
  31 2.46441411999999980e-03
  32 0.00000000000000000e+00
  33 0.00000000000000000e+00
  34 -6.84307117999999955e-04
  35 0.00000000000000000e+00
  36 -1.53089590999999997e-01
  37 3.48597926999999974e-01
  38 9.87762546999999963e-02
  39 1.35883463000000010e-01
  40 0.00000000000000000e+00
  41 0.00000000000000000e+00
  42 9.54552872999999968e-02
  43 0.00000000000000000e+00
  44 0.00000000000000000e+00
  45 9.80215019999999965e-02
  46 0.00000000000000000e+00
  47 0.00000000000000000e+00
  48 2.01987754000000005e-02
  49 -3.69516464999999992e-03
  50 -3.83149036000000019e-03
  51 1.46621640000000001e-02
  52 0.00000000000000000e+00
  53 0.00000000000000000e+00
  54 0.00000000000000000e+00
  55 -8.15464584999999950e-03
  56 -4.43436746999999968e-03
  57 2.36590334999999992e-02
  58 0.00000000000000000e+00
  59 0.00000000000000000e+00
  60 0.00000000000000000e+00
  61 0.00000000000000000e+00
  62 0.00000000000000000e+00
  63 1.52089709000000003e-02
  64 0.00000000000000000e+00
  65 0.00000000000000000e+00
  66 -2.46441411999999980e-03
  67 0.00000000000000000e+00
  68 0.00000000000000000e+00
  69 6.84307117999999955e-04
  70 0.00000000000000000e+00
 Ene= -1.08490704999999998e+00
 Sym= 1a
 Spin= Alpha
 Occup= 2.00000000000000000e+00
   1 -1.58288217000000009e-01
   2 3.92621005999999995e-01
   3 1.17733330999999997e-01
   4 3.11714044000000023e-01
   5 0.00000000000000000e+00
   6 0.00000000000000000e+00
   7 9.20857129999999996e-02
   8 0.00000000000000000e+00
   9 0.00000000000000000e+00
  10 9.20811029999999975e-02
  11 0.00000000000000000e+00
  12 0.00000000000000000e+00
  13 3.96201719000000008e-02
  14 4.11889638999999967e-03
  15 2.89031211999999987e-03
  16 -3.12994042999999991e-03
  17 0.00000000000000000e+00
  18 0.00000000000000000e+00
  19 0.00000000000000000e+00
  20 1.12228601000000008e-02
  21 6.15536506000000008e-03
  22 -2.68071450999999997e-03
  23 0.00000000000000000e+00
  24 0.00000000000000000e+00
  25 0.00000000000000000e+00
  26 0.00000000000000000e+00
  27 0.00000000000000000e+00
  28 4.58873626000000021e-03
  29 0.00000000000000000e+00
  30 0.00000000000000000e+00
  31 6.34692524000000035e-04
  32 0.00000000000000000e+00
  33 0.00000000000000000e+00
  34 1.84023264000000007e-03
  35 0.00000000000000000e+00
  36 1.58288217000000009e-01
  37 -3.92621005999999995e-01
  38 -1.17733330999999997e-01
  39 -3.11714044000000023e-01
  40 0.00000000000000000e+00
  41 0.00000000000000000e+00
  42 9.20857129999999996e-02
  43 0.00000000000000000e+00
  44 0.00000000000000000e+00
  45 9.20811029999999975e-02
  46 0.00000000000000000e+00
  47 0.00000000000000000e+00
  48 3.96201719000000008e-02
  49 -4.11889638999999967e-03
  50 -2.89031211999999987e-03
  51 3.12994042999999991e-03
  52 0.00000000000000000e+00
  53 0.00000000000000000e+00
  54 0.00000000000000000e+00
  55 -1.12228601000000008e-02
  56 -6.15536506000000008e-03
  57 2.68071450999999997e-03
  58 0.00000000000000000e+00
  59 0.00000000000000000e+00
  60 0.00000000000000000e+00
  61 0.00000000000000000e+00
  62 0.00000000000000000e+00
  63 4.58873626000000021e-03
  64 0.00000000000000000e+00
  65 0.00000000000000000e+00
  66 6.34692524000000035e-04
  67 0.00000000000000000e+00
  68 0.00000000000000000e+00
  69 1.84023264000000007e-03
  70 0.00000000000000000e+00
 Ene= -7.89804560999999961e-01
 Sym= 1a
 Spin= Alpha
 Occup= 2.00000000000000000e+00
   1 0.00000000000000000e+00
   2 0.00000000000000000e+00
   3 0.00000000000000000e+00
   4 0.00000000000000000e+00
   5 2.61753805999999978e-01
   6 0.00000000000000000e+00
   7 0.00000000000000000e+00
   8 3.25946271999999981e-01
   9 0.00000000000000000e+00
  10 0.00000000000000000e+00
  11 1.72357063000000005e-01
  12 0.00000000000000000e+00
  13 0.00000000000000000e+00
  14 0.00000000000000000e+00
  15 0.00000000000000000e+00
  16 0.00000000000000000e+00
  17 0.00000000000000000e+00
  18 -1.01006345000000004e-02
  19 0.00000000000000000e+00
  20 0.00000000000000000e+00
  21 0.00000000000000000e+00
  22 0.00000000000000000e+00
  23 0.00000000000000000e+00
  24 -2.26703400999999985e-02
  25 0.00000000000000000e+00
  26 -4.78689189999999959e-03
  27 0.00000000000000000e+00
  28 0.00000000000000000e+00
  29 1.94032944999999991e-03
  30 0.00000000000000000e+00
  31 0.00000000000000000e+00
  32 8.78128079000000013e-03
  33 0.00000000000000000e+00
  34 0.00000000000000000e+00
  35 0.00000000000000000e+00
  36 0.00000000000000000e+00
  37 0.00000000000000000e+00
  38 0.00000000000000000e+00
  39 0.00000000000000000e+00
  40 2.61753805999999978e-01
  41 0.00000000000000000e+00
  42 0.00000000000000000e+00
  43 3.25946271999999981e-01
  44 0.00000000000000000e+00
  45 0.00000000000000000e+00
  46 1.72357063000000005e-01
  47 0.00000000000000000e+00
  48 0.00000000000000000e+00
  49 0.00000000000000000e+00
  50 0.00000000000000000e+00
  51 0.00000000000000000e+00
  52 0.00000000000000000e+00
  53 1.01006345000000004e-02
  54 0.00000000000000000e+00
  55 0.00000000000000000e+00
  56 0.00000000000000000e+00
  57 0.00000000000000000e+00
  58 0.00000000000000000e+00
  59 2.26703400999999985e-02
  60 0.00000000000000000e+00
  61 -4.78689189999999959e-03
  62 0.00000000000000000e+00
  63 0.00000000000000000e+00
  64 1.94032944999999991e-03
  65 0.00000000000000000e+00
  66 0.00000000000000000e+00
  67 8.78128079000000013e-03
  68 0.00000000000000000e+00
  69 0.00000000000000000e+00
  70 0.00000000000000000e+00
 Ene= -7.54431433000000040e-01
 Sym= 1a
 Spin= Alpha
 Occup= 2.00000000000000000e+00
   1 -5.31861921000000015e-02
   2 1.40641210999999988e-01
   3 2.84510458999999993e-02
   4 2.66169413999999993e-01
   5 0.00000000000000000e+00
   6 0.00000000000000000e+00
   7 2.58581019000000023e-01
   8 0.00000000000000000e+00
   9 0.00000000000000000e+00
  10 3.08668578000000027e-01
  11 0.00000000000000000e+00
  12 0.00000000000000000e+00
  13 1.55953784000000012e-01
  14 3.97166475000000022e-03
  15 2.99076531999999985e-03
  16 -1.76759724000000000e-02
  17 0.00000000000000000e+00
  18 0.00000000000000000e+00
  19 0.00000000000000000e+00
  20 -6.37445227999999982e-03
  21 -8.19681224000000028e-03
  22 -4.40511884000000034e-02
  23 0.00000000000000000e+00
  24 0.00000000000000000e+00
  25 0.00000000000000000e+00
  26 0.00000000000000000e+00
  27 0.00000000000000000e+00
  28 1.27897792000000003e-02
  29 0.00000000000000000e+00
  30 0.00000000000000000e+00
  31 -4.11354818000000001e-03
  32 0.00000000000000000e+00
  33 0.00000000000000000e+00
  34 -5.78013139000000038e-04
  35 0.00000000000000000e+00
  36 -5.31861921000000015e-02
  37 1.40641210999999988e-01
  38 2.84510458999999993e-02
  39 2.66169413999999993e-01
  40 0.00000000000000000e+00
  41 0.00000000000000000e+00
  42 -2.58581019000000023e-01
  43 0.00000000000000000e+00
  44 0.00000000000000000e+00
  45 -3.08668578000000027e-01
  46 0.00000000000000000e+00
  47 0.00000000000000000e+00
  48 -1.55953784000000012e-01
  49 3.97166475000000022e-03
  50 2.99076531999999985e-03
  51 -1.76759724000000000e-02
  52 0.00000000000000000e+00
  53 0.00000000000000000e+00
  54 0.00000000000000000e+00
  55 -6.37445227999999982e-03
  56 -8.19681224000000028e-03
  57 -4.40511884000000034e-02
  58 0.00000000000000000e+00
  59 0.00000000000000000e+00
  60 0.00000000000000000e+00
  61 0.00000000000000000e+00
  62 0.00000000000000000e+00
  63 -1.27897792000000003e-02
  64 0.00000000000000000e+00
  65 0.00000000000000000e+00
  66 4.11354818000000001e-03
  67 0.00000000000000000e+00
  68 0.00000000000000000e+00
  69 5.78013139000000038e-04
  70 0.00000000000000000e+00
 Ene= -6.77945370999999963e-01
 Sym= 1a
 Spin= Alpha
 Occup= 2.00000000000000000e+00
   1 0.00000000000000000e+00
   2 0.00000000000000000e+00
   3 0.00000000000000000e+00
   4 0.00000000000000000e+00
   5 0.00000000000000000e+00
   6 2.36910906000000004e-01
   7 0.00000000000000000e+00
   8 0.00000000000000000e+00
   9 3.09305578000000025e-01
  10 0.00000000000000000e+00
  11 0.00000000000000000e+00
  12 2.01456046000000000e-01
  13 0.00000000000000000e+00
  14 0.00000000000000000e+00
  15 0.00000000000000000e+00
  16 0.00000000000000000e+00
  17 0.00000000000000000e+00
  18 0.00000000000000000e+00
  19 -1.19809748000000004e-02
  20 0.00000000000000000e+00
  21 0.00000000000000000e+00
  22 0.00000000000000000e+00
  23 0.00000000000000000e+00
  24 0.00000000000000000e+00
  25 -4.12013902000000001e-02
  26 0.00000000000000000e+00
  27 -1.84797712000000000e-04
  28 0.00000000000000000e+00
  29 0.00000000000000000e+00
  30 -4.10292650000000040e-03
  31 0.00000000000000000e+00
  32 0.00000000000000000e+00
  33 8.87585295000000059e-03
  34 0.00000000000000000e+00
  35 0.00000000000000000e+00
  36 0.00000000000000000e+00
  37 0.00000000000000000e+00
  38 0.00000000000000000e+00
  39 0.00000000000000000e+00
  40 0.00000000000000000e+00
  41 2.36910906000000004e-01
  42 0.00000000000000000e+00
  43 0.00000000000000000e+00
  44 3.09305578000000025e-01
  45 0.00000000000000000e+00
  46 0.00000000000000000e+00
  47 2.01456046000000000e-01
  48 0.00000000000000000e+00
  49 0.00000000000000000e+00
  50 0.00000000000000000e+00
  51 0.00000000000000000e+00
  52 0.00000000000000000e+00
  53 0.00000000000000000e+00
  54 1.19809748000000004e-02
  55 0.00000000000000000e+00
  56 0.00000000000000000e+00
  57 0.00000000000000000e+00
  58 0.00000000000000000e+00
  59 0.00000000000000000e+00
  60 4.12013902000000001e-02
  61 0.00000000000000000e+00
  62 -1.84797712000000000e-04
  63 0.00000000000000000e+00
  64 0.00000000000000000e+00
  65 -4.10292650000000040e-03
  66 0.00000000000000000e+00
  67 0.00000000000000000e+00
  68 8.87585295000000059e-03
  69 0.00000000000000000e+00
  70 0.00000000000000000e+00
 Ene= -4.47242368000000001e-01
 Sym= 1a
 Spin= Alpha
 Occup= 2.00000000000000000e+00
   1 0.00000000000000000e+00
   2 0.00000000000000000e+00
   3 0.00000000000000000e+00
   4 0.00000000000000000e+00
   5 3.00342180999999986e-01
   6 0.00000000000000000e+00
   7 0.00000000000000000e+00
   8 3.68919873999999981e-01
   9 0.00000000000000000e+00
  10 0.00000000000000000e+00
  11 3.43971473999999999e-01
  12 0.00000000000000000e+00
  13 0.00000000000000000e+00
  14 0.00000000000000000e+00
  15 0.00000000000000000e+00
  16 0.00000000000000000e+00
  17 0.00000000000000000e+00
  18 3.26513154000000012e-03
  19 0.00000000000000000e+00
  20 0.00000000000000000e+00
  21 0.00000000000000000e+00
  22 0.00000000000000000e+00
  23 0.00000000000000000e+00
  24 6.93027851000000035e-03
  25 0.00000000000000000e+00
  26 2.86367525999999982e-03
  27 0.00000000000000000e+00
  28 0.00000000000000000e+00
  29 5.16442798999999959e-03
  30 0.00000000000000000e+00
  31 0.00000000000000000e+00
  32 1.82927733000000001e-03
  33 0.00000000000000000e+00
  34 0.00000000000000000e+00
  35 0.00000000000000000e+00
  36 0.00000000000000000e+00
  37 0.00000000000000000e+00
  38 0.00000000000000000e+00
  39 0.00000000000000000e+00
  40 -3.00342180999999986e-01
  41 0.00000000000000000e+00
  42 0.00000000000000000e+00
  43 -3.68919873999999981e-01
  44 0.00000000000000000e+00
  45 0.00000000000000000e+00
  46 -3.43971473999999999e-01
  47 0.00000000000000000e+00
  48 0.00000000000000000e+00
  49 0.00000000000000000e+00
  50 0.00000000000000000e+00
  51 0.00000000000000000e+00
  52 0.00000000000000000e+00
  53 3.26513154000000012e-03
  54 0.00000000000000000e+00
  55 0.00000000000000000e+00
  56 0.00000000000000000e+00
  57 0.00000000000000000e+00
  58 0.00000000000000000e+00
  59 6.93027851000000035e-03
  60 0.00000000000000000e+00
  61 -2.86367525999999982e-03
  62 0.00000000000000000e+00
  63 0.00000000000000000e+00
  64 -5.16442798999999959e-03
  65 0.00000000000000000e+00
  66 0.00000000000000000e+00
  67 -1.82927733000000001e-03
  68 0.00000000000000000e+00
  69 0.00000000000000000e+00
  70 0.00000000000000000e+00
 Ene= 5.03839958999999990e-02
 Sym= 1a
 Spin= Alpha
 Occup= 0.00000000000000000e+00
   1 0.00000000000000000e+00
   2 0.00000000000000000e+00
   3 0.00000000000000000e+00
   4 0.00000000000000000e+00
   5 0.00000000000000000e+00
   6 2.69375107000000003e-01
   7 0.00000000000000000e+00
   8 0.00000000000000000e+00
   9 2.83726279999999997e-01
  10 0.00000000000000000e+00
  11 0.00000000000000000e+00
  12 5.04491843000000051e-01
  13 0.00000000000000000e+00
  14 0.00000000000000000e+00
  15 0.00000000000000000e+00
  16 0.00000000000000000e+00
  17 0.00000000000000000e+00
  18 0.00000000000000000e+00
  19 5.22419277000000029e-03
  20 0.00000000000000000e+00
  21 0.00000000000000000e+00
  22 0.00000000000000000e+00
  23 0.00000000000000000e+00
  24 0.00000000000000000e+00
  25 5.96366731000000025e-03
  26 0.00000000000000000e+00
  27 2.46622142000000009e-02
  28 0.00000000000000000e+00
  29 0.00000000000000000e+00
  30 7.33846244000000043e-03
  31 0.00000000000000000e+00
  32 0.00000000000000000e+00
  33 8.04427391999999915e-03
  34 0.00000000000000000e+00
  35 0.00000000000000000e+00
  36 0.00000000000000000e+00
  37 0.00000000000000000e+00
  38 0.00000000000000000e+00
  39 0.00000000000000000e+00
  40 0.00000000000000000e+00
  41 -2.69375107000000003e-01
  42 0.00000000000000000e+00
  43 0.00000000000000000e+00
  44 -2.83726279999999997e-01
  45 0.00000000000000000e+00
  46 0.00000000000000000e+00
  47 -5.04491843000000051e-01
  48 0.00000000000000000e+00
  49 0.00000000000000000e+00
  50 0.00000000000000000e+00
  51 0.00000000000000000e+00
  52 0.00000000000000000e+00
  53 0.00000000000000000e+00
  54 5.22419277000000029e-03
  55 0.00000000000000000e+00
  56 0.00000000000000000e+00
  57 0.00000000000000000e+00
  58 0.00000000000000000e+00
  59 0.00000000000000000e+00
  60 5.96366731000000025e-03
  61 0.00000000000000000e+00
  62 -2.46622142000000009e-02
  63 0.00000000000000000e+00
  64 0.00000000000000000e+00
  65 -7.33846244000000043e-03
  66 0.00000000000000000e+00
  67 0.00000000000000000e+00
  68 -8.04427391999999915e-03
  69 0.00000000000000000e+00
  70 0.00000000000000000e+00
 Ene= 4.31562804000000022e-01
 Sym= 1a
 Spin= Alpha
 Occup= 0.00000000000000000e+00
   1 -8.68489684999999983e-02
   2 2.03282264999999990e-01
   3 7.40918212999999992e-02
   4 2.50120088999999979e+00
   5 0.00000000000000000e+00
   6 0.00000000000000000e+00
   7 -1.23601348999999999e-01
   8 0.00000000000000000e+00
   9 0.00000000000000000e+00
  10 -1.46972323999999988e-01
  11 0.00000000000000000e+00
  12 0.00000000000000000e+00
  13 -2.01395015999999982e+00
  14 1.55211956000000009e-02
  15 1.61854306000000017e-02
  16 -1.58934165000000002e-02
  17 0.00000000000000000e+00
  18 0.00000000000000000e+00
  19 0.00000000000000000e+00
  20 -2.64943964999999997e-02
  21 -2.90018372000000017e-02
  22 2.23040232000000005e-01
  23 0.00000000000000000e+00
  24 0.00000000000000000e+00
  25 0.00000000000000000e+00
  26 0.00000000000000000e+00
  27 0.00000000000000000e+00
  28 -9.28684528000000009e-02
  29 0.00000000000000000e+00
  30 0.00000000000000000e+00
  31 -1.17917226000000003e-02
  32 0.00000000000000000e+00
  33 0.00000000000000000e+00
  34 -1.35316776000000000e-02
  35 0.00000000000000000e+00
  36 8.68489684999999983e-02
  37 -2.03282264999999990e-01
  38 -7.40918212999999992e-02
  39 -2.50120088999999979e+00
  40 0.00000000000000000e+00
  41 0.00000000000000000e+00
  42 -1.23601348999999999e-01
  43 0.00000000000000000e+00
  44 0.00000000000000000e+00
  45 -1.46972323999999988e-01
  46 0.00000000000000000e+00
  47 0.00000000000000000e+00
  48 -2.01395015999999982e+00
  49 -1.55211956000000009e-02
  50 -1.61854306000000017e-02
  51 1.58934165000000002e-02
  52 0.00000000000000000e+00
  53 0.00000000000000000e+00
  54 0.00000000000000000e+00
  55 2.64943964999999997e-02
  56 2.90018372000000017e-02
  57 -2.23040232000000005e-01
  58 0.00000000000000000e+00
  59 0.00000000000000000e+00
  60 0.00000000000000000e+00
  61 0.00000000000000000e+00
  62 0.00000000000000000e+00
  63 -9.28684528000000009e-02
  64 0.00000000000000000e+00
  65 0.00000000000000000e+00
  66 -1.17917226000000003e-02
  67 0.00000000000000000e+00
  68 0.00000000000000000e+00
  69 -1.35316776000000000e-02
  70 0.00000000000000000e+00
 Ene= 5.29365454000000013e-01
 Sym= 1a
 Spin= Alpha
 Occup= 0.00000000000000000e+00
   1 7.61960198999999949e-02
   2 -1.23002240999999998e-01
   3 -5.71286100000000019e-01
   4 2.05270030000000014e+00
   5 0.00000000000000000e+00
   6 0.00000000000000000e+00
   7 -5.03964724000000031e-02
   8 0.00000000000000000e+00
   9 0.00000000000000000e+00
  10 -1.55230229999999997e-01
  11 0.00000000000000000e+00
  12 0.00000000000000000e+00
  13 6.56911703000000050e-04
  14 -9.48740681000000002e-02
  15 -9.76222129000000050e-02
  16 -1.04270949000000002e-01
  17 0.00000000000000000e+00
  18 0.00000000000000000e+00
  19 0.00000000000000000e+00
  20 -6.87834189000000040e-01
  21 -6.72768971999999965e-01
  22 -7.08867668999999978e-01
  23 0.00000000000000000e+00
  24 0.00000000000000000e+00
  25 0.00000000000000000e+00
  26 0.00000000000000000e+00
  27 0.00000000000000000e+00
  28 3.37938247000000025e-02
  29 0.00000000000000000e+00
  30 0.00000000000000000e+00
  31 1.01298956000000009e-03
  32 0.00000000000000000e+00
  33 0.00000000000000000e+00
  34 -2.43001763999999996e-04
  35 0.00000000000000000e+00
  36 7.61960198999999949e-02
  37 -1.23002240999999998e-01
  38 -5.71286100000000019e-01
  39 2.05270030000000014e+00
  40 0.00000000000000000e+00
  41 0.00000000000000000e+00
  42 5.03964724000000031e-02
  43 0.00000000000000000e+00
  44 0.00000000000000000e+00
  45 1.55230229999999997e-01
  46 0.00000000000000000e+00
  47 0.00000000000000000e+00
  48 -6.56911703000000050e-04
  49 -9.48740681000000002e-02
  50 -9.76222129000000050e-02
  51 -1.04270949000000002e-01
  52 0.00000000000000000e+00
  53 0.00000000000000000e+00
  54 0.00000000000000000e+00
  55 -6.87834189000000040e-01
  56 -6.72768971999999965e-01
  57 -7.08867668999999978e-01
  58 0.00000000000000000e+00
  59 0.00000000000000000e+00
  60 0.00000000000000000e+00
  61 0.00000000000000000e+00
  62 0.00000000000000000e+00
  63 -3.37938247000000025e-02
  64 0.00000000000000000e+00
  65 0.00000000000000000e+00
  66 -1.01298956000000009e-03
  67 0.00000000000000000e+00
  68 0.00000000000000000e+00
  69 2.43001763999999996e-04
  70 0.00000000000000000e+00
 Ene= 6.59191461000000034e-01
 Sym= 1a
 Spin= Alpha
 Occup= 0.00000000000000000e+00
   1 0.00000000000000000e+00
   2 0.00000000000000000e+00
   3 0.00000000000000000e+00
   4 0.00000000000000000e+00
   5 5.57326510000000011e-02
   6 0.00000000000000000e+00
   7 0.00000000000000000e+00
   8 1.03545342000000007e+00
   9 0.00000000000000000e+00
  10 0.00000000000000000e+00
  11 -7.93226180999999975e-01
  12 0.00000000000000000e+00
  13 0.00000000000000000e+00
  14 0.00000000000000000e+00
  15 0.00000000000000000e+00
  16 0.00000000000000000e+00
  17 0.00000000000000000e+00
  18 -4.26659869999999972e-03
  19 0.00000000000000000e+00
  20 0.00000000000000000e+00
  21 0.00000000000000000e+00
  22 0.00000000000000000e+00
  23 0.00000000000000000e+00
  24 -4.59490492000000014e-02
  25 0.00000000000000000e+00
  26 -2.68307711999999976e-01
  27 0.00000000000000000e+00
  28 0.00000000000000000e+00
  29 -1.18681971999999997e-01
  30 0.00000000000000000e+00
  31 0.00000000000000000e+00
  32 -1.17185886000000003e-01
  33 0.00000000000000000e+00
  34 0.00000000000000000e+00
  35 0.00000000000000000e+00
  36 0.00000000000000000e+00
  37 0.00000000000000000e+00
  38 0.00000000000000000e+00
  39 0.00000000000000000e+00
  40 5.57326510000000011e-02
  41 0.00000000000000000e+00
  42 0.00000000000000000e+00
  43 1.03545342000000007e+00
  44 0.00000000000000000e+00
  45 0.00000000000000000e+00
  46 -7.93226180999999975e-01
  47 0.00000000000000000e+00
  48 0.00000000000000000e+00
  49 0.00000000000000000e+00
  50 0.00000000000000000e+00
  51 0.00000000000000000e+00
  52 0.00000000000000000e+00
  53 4.26659869999999972e-03
  54 0.00000000000000000e+00
  55 0.00000000000000000e+00
  56 0.00000000000000000e+00
  57 0.00000000000000000e+00
  58 0.00000000000000000e+00
  59 4.59490492000000014e-02
  60 0.00000000000000000e+00
  61 -2.68307711999999976e-01
  62 0.00000000000000000e+00
  63 0.00000000000000000e+00
  64 -1.18681971999999997e-01
  65 0.00000000000000000e+00
  66 0.00000000000000000e+00
  67 -1.17185886000000003e-01
  68 0.00000000000000000e+00
  69 0.00000000000000000e+00
  70 0.00000000000000000e+00
 Ene= 6.59521039000000031e-01
 Sym= 1a
 Spin= Alpha
 Occup= 0.00000000000000000e+00
   1 0.00000000000000000e+00
   2 0.00000000000000000e+00
   3 0.00000000000000000e+00
   4 0.00000000000000000e+00
   5 0.00000000000000000e+00
   6 5.58468364000000023e-02
   7 0.00000000000000000e+00
   8 0.00000000000000000e+00
   9 1.06205772000000009e+00
  10 0.00000000000000000e+00
  11 0.00000000000000000e+00
  12 -7.87821670000000029e-01
  13 0.00000000000000000e+00
  14 0.00000000000000000e+00
  15 0.00000000000000000e+00
  16 0.00000000000000000e+00
  17 0.00000000000000000e+00
  18 0.00000000000000000e+00
  19 -5.80843634999999962e-03
  20 0.00000000000000000e+00
  21 0.00000000000000000e+00
  22 0.00000000000000000e+00
  23 0.00000000000000000e+00
  24 0.00000000000000000e+00
  25 -5.84624532000000002e-02
  26 0.00000000000000000e+00
  27 -2.70800486000000007e-01
  28 0.00000000000000000e+00
  29 0.00000000000000000e+00
  30 -1.22613527999999999e-01
  31 0.00000000000000000e+00
  32 0.00000000000000000e+00
  33 -1.18229567999999993e-01
  34 0.00000000000000000e+00
  35 0.00000000000000000e+00
  36 0.00000000000000000e+00
  37 0.00000000000000000e+00
  38 0.00000000000000000e+00
  39 0.00000000000000000e+00
  40 0.00000000000000000e+00
  41 5.58468364000000023e-02
  42 0.00000000000000000e+00
  43 0.00000000000000000e+00
  44 1.06205772000000009e+00
  45 0.00000000000000000e+00
  46 0.00000000000000000e+00
  47 -7.87821670000000029e-01
  48 0.00000000000000000e+00
  49 0.00000000000000000e+00
  50 0.00000000000000000e+00
  51 0.00000000000000000e+00
  52 0.00000000000000000e+00
  53 0.00000000000000000e+00
  54 5.80843634999999962e-03
  55 0.00000000000000000e+00
  56 0.00000000000000000e+00
  57 0.00000000000000000e+00
  58 0.00000000000000000e+00
  59 0.00000000000000000e+00
  60 5.84624532000000002e-02
  61 0.00000000000000000e+00
  62 -2.70800486000000007e-01
  63 0.00000000000000000e+00