[Molden Format]
[Atoms] Angs
O      1  8     0.000000     0.702841    -0.107440
O      2  8     0.000000    -0.702841    -0.107440
H      3  1     0.000671     0.960744     0.859522
H      4  1    -0.000671    -0.960744     0.859522
[MO]
 Sym= A
 Ene=   -20.3230
 Spin= Alpha
 Occup=   2.000000
   1    0.702851
   2    0.019252
   3    0.000002
   4   -0.002999
   5    0.002336
   6   -0.702851
   7   -0.019252
   8    0.000002
   9   -0.002999
  10   -0.002336
  11   -0.004220
  12    0.004220
 Sym= A
 Ene=   -20.3221
 Spin= Alpha
 Occup=   2.000000
   1    0.703442
   2    0.015169
   3    0.000002
   4    0.000937
   5    0.002315
   6    0.703442
   7    0.015169
   8   -0.000002
   9   -0.000937
  10    0.002315
  11   -0.004101
  12   -0.004101
 Sym= A
 Ene=    -1.4087
 Spin= Alpha
 Occup=   2.000000
   1   -0.165906
   2    0.587895
   3    0.000032
   4   -0.097143
   5    0.067271
   6   -0.165906
   7    0.587895
   8   -0.000032
   9    0.097143
  10    0.067271
  11    0.089627
  12    0.089627
 Sym= A
 Ene=    -1.1111
 Spin= Alpha
 Occup=   2.000000
   1   -0.171219
   2    0.660759
   3    0.000065
   4    0.095580
   5    0.088086
   6    0.171219
   7   -0.660759
   8    0.000065
   9    0.095580
  10   -0.088086
  11    0.176106
  12   -0.176106
 Sym= A
 Ene=    -0.6601
 Spin= Alpha
 Occup=   2.000000
   1    0.033402
   2   -0.182185
   3    0.000080
   4    0.245762
   5    0.404264
   6    0.033402
   7   -0.182185
   8   -0.000080
   9   -0.245762
  10    0.404264
  11    0.346413
  12    0.346413
 Sym= A
 Ene=    -0.5220
 Spin= Alpha
 Occup=   2.000000
   1    0.000113
   2   -0.000567
   3    0.676879
   4   -0.000119
   5    0.000328
   6   -0.000113
   7    0.000567
   8    0.676879
   9   -0.000119
  10   -0.000328
  11    0.000553
  12   -0.000553
 Sym= A
 Ene=    -0.4798
 Spin= Alpha
 Occup=   2.000000
   1   -0.052591
   2    0.251283
   3    0.000101
   4    0.565023
   5   -0.293805
   6   -0.052591
   7    0.251283
   8   -0.000101
   9   -0.565023
  10   -0.293805
  11   -0.017653
  12   -0.017653
 Sym= A
 Ene=    -0.4508
 Spin= Alpha
 Occup=   2.000000
   1    0.071737
   2   -0.365235
   3   -0.000761
   4   -0.073626
   5    0.512157
   6   -0.071737
   7    0.365235
   8   -0.000761
   9   -0.073626
  10   -0.512157
  11    0.383458
  12   -0.383458
 Sym= A
 Ene=    -0.3352
 Spin= Alpha
 Occup=   2.000000
   1    0.000036
   2   -0.000197
   3    0.741782
   4   -0.000189
   5   -0.000265
   6    0.000036
   7   -0.000197
   8   -0.741782
   9    0.000189
  10   -0.000265
  11    0.000204
  12    0.000204
 Sym= A
 Ene=     0.4905
 Spin= Alpha
 Occup=   0.000000
   1    0.088694
   2   -0.494296
   3   -0.000144
   4    0.745340
   5   -0.237563
   6   -0.088694
   7    0.494296
   8   -0.000144
   9    0.745340
  10    0.237563
  11    0.313985
  12   -0.313985
 Sym= A
 Ene=     0.5140
 Spin= Alpha
 Occup=   0.000000
   1    0.065520
   2   -0.426834
   3   -0.000463
   4   -0.180420
   5   -0.550881
   6    0.065520
   7   -0.426834
   8    0.000463
   9    0.180420
  10   -0.550881
  11    0.751448
  12    0.751448
 Sym= A
 Ene=     0.6798
 Spin= Alpha
 Occup=   0.000000
   1    0.032469
   2   -0.239949
   3   -0.000360
   4   -0.419024
   5   -0.572307
   6   -0.032469
   7    0.239949
   8   -0.000360
   9   -0.419024
  10    0.572307
  11    0.760410
  12   -0.760410
[FREQ]
   -685.33399800
   1469.65220000
   1610.81033000
   1791.08476000
   4119.39520000
   4176.92847000
[FR-COORD]
O       -0.00000000      1.32817797     -0.20303281
O       -0.00000000     -1.32817797     -0.20303281
H        0.00126945      1.81554334      1.62426250
H       -0.00126945     -1.81554334      1.62426250
[FR-NORM-COORD]
vibration 1
    -0.06067833     -0.00003471      0.00002940
     0.06067833      0.00003471      0.00002940
     0.70449834     -0.00012228     -0.00046659
    -0.70449834      0.00012228     -0.00046659
vibration 2
    -0.00003626      0.63592186     -0.01006431
     0.00003626     -0.63592186     -0.01006431
     0.00060600      0.26455385      0.15972786
    -0.00060600     -0.26455385      0.15972786
vibration 3
     0.00003767     -0.01526444      0.01033312
    -0.00003767      0.01526444      0.01033312
     0.00004344      0.68757992     -0.16399412
    -0.00004344     -0.68757992     -0.16399412
vibration 4
     0.00000528     -0.04358900      0.07036798
     0.00000528     -0.04358900     -0.07036798
    -0.00008387      0.69178907     -0.12073205
    -0.00008387      0.69178907      0.12073205
vibration 5
    -0.00002989     -0.01121552     -0.04338507
    -0.00002989     -0.01121552      0.04338507
     0.00047440      0.17799839      0.68286770
     0.00047440      0.17799839     -0.68286770
vibration 6
    -0.00002941     -0.01593608     -0.04317910
     0.00002941      0.01593608     -0.04317910
     0.00045899      0.16813022      0.68528361
    -0.00045899     -0.16813022      0.68528361
[INT]
    0.000121
    1.919013
    4.028556
   16.615759
    0.466454
   46.477842
