[Molden Format]
[Title]
 Foo Bar
[Atoms] AU
O    1   8       0.000000000000000000      0.000000000000000000      0.188972613000000011
H    2   1       0.000000000000000000      0.188972613000000011      1.795239830000000092
H    3   1       1.692571009999999987     -0.188972613000000011     -0.598406346999999950

[5D10F]
[GTO]
  1 0
 s    7 1.00
    11720.0000000000         0.0007118644
     1759.0000000000         0.0054852020
      400.8000000000         0.0279099296
      113.7000000000         0.1051332080
       37.0300000000         0.2840024900
       13.2700000000         0.4516739460
        5.0250000000         0.2732081260
 s    7 1.00
    11720.0000000000        -0.0000003061
     1759.0000000000        -0.0000617623
      113.7000000000        -0.0041572707
       37.0300000000        -0.0141000884
       13.2700000000        -0.1261384810
        5.0250000000        -0.1096145980
        1.0130000000         1.0986883300
 s    1 1.00
        0.3023000000         1.0000000000
 p    3 1.00
       17.7000000000         0.0626791663
        3.8540000000         0.3335365660
        1.0460000000         0.7412396420
 p    1 1.00
        0.2753000000         1.0000000000
 d    1 1.00
        1.1850000000         1.0000000000

  2 0
 s    3 1.00
       13.0100000000         0.0334987264
        1.9620000000         0.2348008010
        0.4446000000         0.8136829580
 s    1 1.00
        0.1220000000         1.0000000000
 p    1 1.00
        0.7270000000         1.0000000000

  3 0
 s    3 1.00
       13.0100000000         0.0334987264
        1.9620000000         0.2348008010
        0.4446000000         0.8136829580
 s    1 1.00
        0.1220000000         1.0000000000
 p    1 1.00
        0.7270000000         1.0000000000

[MO]
 Ene= -2.05376431000000004e+01
 Sym= 1a
 Spin= Alpha
 Occup= 2.00000000000000000e+00
   1 9.97246252000000055e-01
   2 1.56372114000000000e-02
   3 -2.43480494000000020e-03
   4 1.28492936000000006e-03
   5 7.64860028000000043e-05
   6 1.27179681999999993e-03
   7 -4.08293140999999981e-04
   8 2.07783604999999994e-05
   9 -2.09215468999999998e-05
  10 3.39488922999999984e-04
  11 -7.25565155000000014e-05
  12 7.96672226999999965e-05
  13 4.38797517999999984e-05
  14 -1.41104601000000004e-05
  15 -9.45998924999999968e-04
  16 4.79184541000000019e-04
  17 2.31045989999999996e-05
  18 1.30766580000000001e-04
  19 1.12269423999999994e-03
  20 -1.33183465000000001e-04
  21 4.06065081999999993e-04
  22 5.86522152999999951e-04
  23 -6.07894844000000006e-05
  24 -2.32943439999999999e-04
 Ene= -1.35030538999999994e+00
 Sym= 1a
 Spin= Alpha
 Occup= 2.00000000000000000e+00
   1 -2.04858478000000011e-01
   2 4.36237305999999991e-01
   3 3.54471912000000000e-01
   4 4.84067491000000003e-02
   5 5.22206102999999994e-03
   6 6.78073453000000020e-02
   7 -7.34691618000000036e-03
   8 -1.40765785999999991e-03
   9 -1.55196268999999998e-02
  10 6.07035391000000039e-03
  11 -8.33066959999999995e-04
  12 1.45907126999999994e-03
  13 1.29864348999999993e-03
  14 -2.56444711000000018e-04
  15 2.44209195999999990e-01
  16 9.99793508999999997e-03
  17 7.42831358000000004e-03
  18 -6.09307410000000001e-03
  19 -4.81972134000000010e-02
  20 1.62694280999999996e-01
  21 9.39791960999999954e-03
  22 -3.10646936999999998e-02
  23 4.60791016000000001e-03
  24 2.41377262999999988e-02
 Ene= -7.38331340999999974e-01
 Sym= 1a
 Spin= Alpha
 Occup= 2.00000000000000000e+00
   1 1.47700906000000007e-02
   2 -3.41583962000000033e-02
   3 -9.59269729999999987e-02
   4 -2.18957034999999994e-01
   5 6.37227132999999973e-02
   6 4.35708747999999979e-01
   7 -8.79840454999999966e-02
   8 2.49056341999999986e-02
   9 1.69130043000000008e-01
  10 2.21856622999999989e-02
  11 1.04904870999999993e-02
  12 2.76557905000000001e-03
  13 -1.00345482000000000e-02
  14 2.36563675999999995e-03
  15 3.58385740000000008e-01
  16 6.55994190000000060e-02
  17 -1.04890651000000001e-02
  18 -3.81072653000000001e-03
  19 -3.74659243000000017e-02
  20 -3.19392255000000014e-01
  21 -8.47374859000000064e-02
  22 4.06460443999999976e-02
  23 -3.02591752999999998e-03
  24 -6.05520472000000039e-03
 Ene= -5.49686774999999961e-01
 Sym= 1a
 Spin= Alpha
 Occup= 2.00000000000000000e+00
   1 6.16693608000000032e-02
   2 -1.36368664000000001e-01
   3 -3.20211888000000000e-01
   4 4.88051958000000008e-01
   5 4.71330069999999993e-03
   6 2.76189067000000010e-01
   7 3.39842122999999996e-01
   8 3.49900337999999988e-03
   9 1.94161655999999988e-01
  10 2.21638224000000016e-03
  11 1.12153033999999995e-02
  12 1.40128954999999998e-03
  13 1.33215408000000000e-02
  14 -2.07110105000000001e-04
  15 1.61079438999999991e-01
  16 1.11272581000000006e-02
  17 2.86713372999999987e-02
  18 -3.13304925000000003e-03
  19 -1.27593454000000002e-02
  20 2.09038691999999998e-01
  21 5.69530505999999992e-02
  22 -9.42224202000000073e-03
  23 4.11559882000000002e-03
  24 3.04239850000000006e-02
 Ene= -4.92350775999999990e-01
 Sym= 1a
 Spin= Alpha
 Occup= 2.00000000000000000e+00
   1 1.98844697999999993e-10
   2 -4.89265672999999984e-10
   3 -1.24674034000000004e-09
   4 3.54929646000000029e-02
   5 6.23567462999999989e-01
   6 -7.33608775000000046e-02
   7 2.79681066999999985e-02
   8 4.91365023000000012e-01
   9 -5.78076491999999983e-02
  10 -2.19638662999999991e-03
  11 -9.85925687999999979e-04
  12 1.07205699000000008e-02
  13 2.79577758999999986e-04
  14 1.36233870000000007e-02
  15 2.14868874000000013e-10
  16 -2.23477462000000002e-11
  17 1.93263277000000006e-03
  18 3.39539661000000034e-02
  19 -3.99458424999999968e-03
  20 1.15110932000000004e-09
  21 1.10603267999999990e-09
  22 1.64572781000000006e-03
  23 2.89134018999999999e-02
  24 -3.40157662999999999e-03
 Ene= 1.90076119999999987e-01
 Sym= 1a
 Spin= Alpha
 Occup= 0.00000000000000000e+00
   1 -8.50711464000000056e-02
   2 7.74085332999999987e-02
   3 1.02227478000000005e+00
   4 1.78442919000000005e-01
   5 -6.53408713000000040e-03
   6 3.07933014999999984e-02
   7 3.21427140000000000e-01
   8 -1.34355984000000001e-02
   9 4.13081141000000013e-02
  10 6.36532105999999993e-03
  11 -1.38288139000000004e-03
  12 2.54525505999999993e-03
  13 9.56864422000000027e-03
  14 -1.27313985000000003e-03
  15 -5.57631717000000027e-02
  16 -6.34995922999999962e-01
  17 3.93135526999999988e-03
  18 2.83109904999999992e-03
  19 2.59663834000000010e-02
  20 -8.12645889000000038e-02
  21 -1.01976742999999992e+00
  22 2.26755821999999989e-02
  23 -2.39424456000000016e-03
  24 -9.38033211999999943e-03
 Ene= 2.59536007000000013e-01
 Sym= 1a
 Spin= Alpha
 Occup= 0.00000000000000000e+00
   1 1.59297808999999992e-02
   2 -1.28762136999999999e-02
   3 -2.88387053000000004e-01
   4 1.30623679999999992e-01
   5 -3.37018130999999985e-02
   6 -2.23267947999999994e-01
   7 3.36122784999999979e-01
   8 -8.57305951999999954e-02
   9 -5.66089410000000015e-01
  10 -2.29826287999999983e-02
  11 -4.51736446000000017e-03
  12 -3.67245260999999983e-03
  13 6.76480639000000012e-03
  14 -1.28110783000000002e-03
  15 9.32453528999999982e-03
  16 1.63253478000000007e+00
  17 -2.82276751999999999e-03
  18 -4.91050231000000025e-03
  19 -4.31049619999999967e-02
  20 -2.20087685999999991e-02
  21 -1.24570891000000006e+00
  22 1.94574362000000008e-02
  23 -1.59281548000000006e-03
  24 -4.12516652000000008e-03
 Ene= 7.83341080999999995e-01
 Sym= 1a
 Spin= Alpha
 Occup= 0.00000000000000000e+00
   1 3.86556390999999999e-02
   2 -1.68371146999999999e-01
   3 1.55958942999999989e-01
   4 -2.73222161999999991e-01
   5 2.36053459999999993e-02
   6 6.84569426000000009e-02
   7 -1.41958061999999996e-01
   8 2.51842814000000012e-02
   9 1.45385205999999989e-01
  10 -1.41762873000000011e-03
  11 -7.08941980000000055e-02
  12 1.24580164000000007e-02
  13 7.16366179999999991e-02
  14 -1.66328029000000002e-02
  15 5.13081224000000030e-02
  16 5.18627763999999977e-02
  17 -1.63340015000000005e-01
  18 1.76039332000000014e-02
  19 7.06073708999999938e-02
  20 1.24273714999999996e+00
  21 -9.10615375999999976e-01
  22 2.22113478000000003e-01
  23 -2.90537064000000005e-02
  24 -1.39495064000000002e-01
 Ene= 9.16597443999999983e-01
 Sym= 1a
 Spin= Alpha
 Occup= 0.00000000000000000e+00
   1 4.63212584999999968e-02
   2 -1.10060004000000003e-01
   3 -1.84507728000000010e-02
   4 -6.30997553000000027e-03
   5 -2.64468142999999996e-02
   6 -2.27850771000000007e-01
   7 1.82294761000000000e-01
   8 -6.74331051999999959e-02
   9 -4.84984776999999978e-01
  10 1.17770634999999999e-01
  11 -7.93695976999999990e-03
  12 2.42036438000000007e-02
  13 -4.97150404999999965e-03
  14 -5.31610898999999946e-04
  15 1.25486309999999990e+00
  16 -6.35718015000000025e-01
  17 -1.39705353999999993e-02
  18 4.11595641999999984e-02
  19 3.43097166000000009e-01
  20 -2.07882747000000007e-01
  21 1.00349213000000007e-01
  22 -5.71874752999999986e-02
  23 -2.17207313000000006e-02
  24 -2.12294274000000005e-01
 Ene= 1.15326141999999998e+00
 Sym= 1a
 Spin= Alpha
 Occup= 0.00000000000000000e+00
   1 -3.27866814000000034e-02
   2 4.85591346999999993e-02
   3 8.78046816000000008e-01
   4 -5.76677946999999969e-01
   5 -3.05282194000000007e-02
   6 -5.38494295999999983e-01
   7 8.21686153000000030e-01
   8 7.16631620999999969e-02
   9 1.00667952000000005e+00
  10 2.95190899000000000e-02
  11 2.20377300000000002e-03
  12 6.29881639999999975e-03
  13 2.73119532000000009e-03
  14 -9.41317427999999997e-05
  15 -5.56980086000000041e-01
  16 -4.12880203999999973e-01
  17 2.69294202000000017e-02
  18 3.51660623000000019e-02
  19 3.11940337999999984e-01
  20 -3.68033315000000028e-01
  21 6.02261217999999973e-02
  22 1.91796496000000011e-01
  23 -6.51111839999999990e-03
  24 3.74491772999999972e-02
 Ene= 1.19615709000000003e+00
 Sym= 1a
 Spin= Alpha
 Occup= 0.00000000000000000e+00
   1 8.75792944999999930e-12
   2 2.81131402999999991e-14
   3 9.26306194000000043e-10
   4 -5.34772589999999992e-02
   5 -9.39529285999999964e-01
   6 1.10532855999999999e-01
   7 5.91064576000000022e-02
   8 1.03842736000000002e+00
   9 -1.22167920999999999e-01
  10 1.54145917999999995e-03
  11 -6.46778346000000007e-04
  12 -7.44766797000000029e-03
  13 1.09916561999999995e-03
  14 1.78111606000000010e-03
  15 -1.13130286999999998e-09
  16 -1.67184557999999993e-09
  17 -7.54685805999999980e-03
  18 -1.32588957000000007e-01
  19 1.55987016000000006e-02
  20 6.39706749000000011e-10
  21 1.17174579999999991e-09
  22 4.35148660000000010e-03
  23 7.64502395000000029e-02
  24 -8.99414551999999992e-03
 Ene= 1.25066564999999996e+00
 Sym= 1a
 Spin= Alpha
 Occup= 0.00000000000000000e+00
   1 1.80657944999999993e-02
   2 -1.38827989999999995e-02
   3 1.21045176999999993e-02
   4 5.45123271000000020e-01
   5 -8.31506431999999990e-02
   6 -4.43042627000000022e-01
   7 -1.21170179000000000e+00
   8 2.25420107000000008e-01
   9 1.32983355999999997e+00
  10 3.95221004999999972e-02
  11 8.13337656999999978e-03
  12 6.66419166999999979e-03
  13 -8.54997111000000039e-03
  14 1.89168567000000008e-03
  15 -3.37176387000000022e-01
  16 -8.40322735999999959e-01
  17 -7.32171206999999991e-02
  18 4.04183020999999976e-02
  19 3.08132153999999991e-01
  20 5.27455358999999957e-01
  21 7.89687186999999957e-01
  22 -3.33265234000000021e-01
  23 4.40437883999999988e-02
  24 2.13134072000000008e-01
 Ene= 1.45997937000000011e+00
 Sym= 1a
 Spin= Alpha
 Occup= 0.00000000000000000e+00
   1 1.74079293999999990e-13
   2 -1.35314347999999999e-10
   3 2.30410610000000012e-10
   4 1.03902252000000004e-02
   5 1.82543401999999994e-01
   6 -2.14756943000000006e-02
   7 -9.50313680000000084e-03
   8 -1.66958356000000002e-01
   9 1.96421596000000004e-02
  10 1.80046711999999991e-02
  11 -1.45801199000000006e-02
  12 -8.65909452000000052e-02
  13 1.96366865000000002e-02
  14 8.03277936999999970e-02
  15 -3.18907772999999988e-11
  16 -7.97088657000000030e-11
  17 -3.47373217999999984e-02
  18 -6.10291770999999983e-01
  19 7.17990319999999987e-02
  20 -4.78920963000000006e-11
  21 -9.31639096000000028e-12
  22 4.12107441000000019e-02
  23 7.24021792000000053e-01
  24 -8.51790342999999978e-02
 Ene= 1.52697122000000007e+00
 Sym= 1a
 Spin= Alpha
 Occup= 0.00000000000000000e+00
   1 2.76509815999999992e-02
   2 -7.49557121000000048e-01
   3 1.16378873999999999e+00
   4 9.06798005999999990e-02
   5 7.38693684000000031e-03
   6 1.06661051000000007e-01
   7 -4.29709432000000002e-01
   8 -1.28633480999999997e-02
   9 -3.17237568999999997e-01
  10 4.74164812999999970e-03
  11 7.30635044000000067e-02
  12 4.78851617999999975e-03
  13 6.73266998999999949e-02
  14 9.02199285999999954e-04
  15 1.40405489999999994e-01
  16 -3.35096357000000011e-01
  17 6.06219724000000015e-01
  18 -8.26420360000000055e-03
  19 2.23051393999999986e-01
  20 1.06402542000000003e-01
  21 -2.76246725000000026e-01
  22 4.43965325999999993e-01
  23 2.79049404999999993e-02
  24 4.51988296000000012e-01
 Ene= 1.74421823999999992e+00
 Sym= 1a
 Spin= Alpha
 Occup= 0.00000000000000000e+00
   1 -6.81010345000000000e-13
   2 -8.87320633999999958e-11
   3 1.77205865000000012e-10
   4 -5.96930570000000008e-03
   5 -1.04873315999999994e-01
   6 1.23380372000000006e-02
   7 -3.45836815999999991e-02
   8 -6.07592503999999978e-01
   9 7.14814710999999992e-02
  10 -1.68007433999999983e-02
  11 -1.04744803999999997e-02
  12 8.21714179999999961e-02
  13 4.97649009999999968e-03
  14 1.29057555999999990e-01
  15 -4.09439390000000020e-11
  16 -1.58914832999999995e-11
  17 4.83811892000000007e-02
  18 8.49997640999999970e-01
  19 -9.99997224999999990e-02
  20 -7.74284946000000012e-11
  21 -3.91104710999999985e-11
  22 4.07961797999999987e-02
  23 7.16738408999999965e-01
  24 -8.43221658999999957e-02
 Ene= 1.88229102000000004e+00
 Sym= 1a
 Spin= Alpha
 Occup= 0.00000000000000000e+00
   1 -1.78020134000000003e-02
   2 -1.26246399000000009e+00
   3 2.59647235999999992e+00
   4 7.18371280000000001e-02
   5 4.02971956999999964e-03
   6 6.90083697999999968e-02
   7 3.78851066999999986e-01
   8 8.87660588000000056e-02
   9 9.37804659999999957e-01
  10 -4.79578212000000004e-02
  11 -5.35396092999999990e-02
  12 -2.12835481999999986e-02
  13 -1.20810204000000004e-01
  14 7.62127784000000020e-03
  15 -1.06962562999999999e+00
  16 -4.68310090999999984e-01
  17 5.02043522000000034e-02
  18 2.10695855000000015e-02
  19 2.03381007000000003e-01
  20 -4.01024076999999979e-01
  21 -2.13819589000000004e-01
  22 -1.16755645000000005e-01
  23 -8.12417331000000048e-02
  24 -7.47042657000000054e-01
 Ene= 1.91380229999999996e+00
 Sym= 1a
 Spin= Alpha
 Occup= 0.00000000000000000e+00
   1 -8.15853510999999974e-04
   2 -7.49297844999999962e-01
   3 1.27711189999999997e+00
   4 -9.87835484000000076e-03
   5 2.15370473999999985e-02
   6 1.78285624000000004e-01
   7 8.71705625000000039e-01
   8 -1.14856876999999996e-01
   9 -5.54540734000000035e-01
  10 -1.69329955000000008e-03
  11 -1.64833541000000000e-02
  12 -9.09200068000000014e-03
  13 -8.08361159999999995e-02
  14 7.34772524000000017e-03
  15 6.18948866999999986e-02
  16 -8.79553866000000045e-02
  17 -9.20319809999999960e-01
  18 6.76363147999999997e-02
  19 1.29645771999999992e-01
  20 -7.35860858000000007e-01
  21 -2.33081180999999998e-01
  22 2.26620824999999998e-01
  23 3.81372514999999968e-02
  24 4.33808793000000026e-01
 Ene= 2.40973150999999985e+00
 Sym= 1a
 Spin= Alpha
 Occup= 0.00000000000000000e+00
   1 -4.09356998000000027e-02
   2 4.30818798000000003e-01
   3 6.62756111999999953e-01
   4 6.60412160999999998e-01
   5 -6.51189063000000012e-02
   6 -2.33994560999999990e-01
   7 3.26888055999999982e-01
   8 -3.47271685999999968e-02
   9 -1.37028165000000007e-01
  10 -1.03264011999999999e-02
  11 4.56441605999999972e-02
  12 -2.66056276999999987e-02
  13 -1.81551638999999987e-01
  14 2.63008214999999983e-02
  15 -1.26665461000000007e-01
  16 1.24039893999999998e-01
  17 -2.38368234000000012e-01
  18 1.93467836999999983e-02
  19 4.91219549000000005e-02
  20 -5.96066165999999953e-01
  21 -3.77139196999999982e-01
  22 1.16928885000000005e+00
  23 -1.24391922000000002e-01
  24 -4.91613917999999983e-01
 Ene= 2.75482053999999987e+00
 Sym= 1a
 Spin= Alpha
 Occup= 0.00000000000000000e+00
   1 4.13488361999999991e-03
   2 8.01083805999999954e-01
   3 4.14503826000000020e-01
   4 -1.48160772999999992e-02
   5 9.89928228000000049e-02
   6 8.34270779000000018e-01
   7 -2.39105340000000006e-02
   8 2.03524542999999995e-02
   9 1.61427628999999989e-01
  10 -2.70006666999999978e-01
  11 -2.02265605000000008e-02
  12 -6.49721807000000068e-02
  13 -8.62904575999999951e-02
  14 7.90425938000000050e-03
  15 -7.44439442999999978e-01
  16 -2.86134814999999987e-01
  17 3.01669604999999993e-02
  18 1.54899466000000013e-01
  19 1.33124064000000009e+00
  20 -3.77048625999999998e-02
  21 1.25486304999999992e-01
  22 -8.32525343999999945e-02
  23 -2.54330341999999985e-03
  24 -6.18967570999999980e-02
 Ene= 3.22512626000000013e+00
 Sym= 1a
 Spin= Alpha
 Occup= 0.00000000000000000e+00
   1 -1.63050738000000003e-12
   2 4.66105094000000028e-12
   3 -2.67448227000000015e-11
   4 -7.61165288000000050e-05
   5 -1.33727277999999995e-03
   6 1.57326192999999992e-04
   7 1.54610541999999993e-02
   8 2.71631595000000003e-01
   9 -3.19566583000000029e-02
  10 -4.87131468999999970e-02
  11 -1.03263877000000004e-01
  12 2.42402089999999987e-01
  13 8.49628337999999983e-02
  14 9.91785106000000027e-01
  15 2.81959715000000011e-11
  16 8.56459974000000025e-12
  17 -1.41062949999999996e-02
  18 -2.47830151999999998e-01
  19 2.91564885000000010e-02
  20 -1.75793392999999989e-11
  21 1.09965478000000004e-12
  22 -2.54473679000000001e-02
  23 -4.47078772000000013e-01
  24 5.25975025999999984e-02
 Ene= 3.44648031000000010e+00
 Sym= 1a
 Spin= Alpha
 Occup= 0.00000000000000000e+00
   1 -3.49111385999999970e-11
   2 -1.70327624999999988e-10
   3 1.34939266999999993e-09
   4 2.27894749000000013e-03
   5 4.00382848999999985e-02
   6 -4.71038638999999974e-03
   7 9.11048513999999920e-03
   8 1.60059937000000013e-01
   9 -1.88305804999999993e-02
  10 -2.16020719000000000e-01
  11 8.94083210999999933e-02
  12 1.04378938999999993e+00
  13 -1.52845924999999994e-01
  14 -2.39172789999999996e-01
  15 -6.52516023999999966e-10
  16 -7.90740204999999958e-11
  17 -3.36774233000000020e-02
  18 -5.91670649999999965e-01
  19 6.96083120000000055e-02
  20 -7.81031333000000004e-10
  21 -1.72639896999999997e-10
  22 1.15227531999999994e-02
  23 2.02440514999999988e-01
  24 -2.38165320000000014e-02
 Ene= 3.45444234999999988e+00
 Sym= 1a
 Spin= Alpha
 Occup= 0.00000000000000000e+00
   1 -2.40249761000000013e-02
   2 -1.07374885000000003e-01
   3 9.20393606999999947e-01
   4 1.20158893000000003e-01
   5 5.44132171999999977e-04
   6 6.27595866000000002e-02
   7 6.31333751999999970e-01
   8 -1.07620035000000006e-02
   9 2.13970597000000012e-01
  10 -3.74706416000000000e-02
  11 7.26916845999999950e-01
  12 4.35737163000000025e-02
  13 7.81629098000000022e-01
  14 -3.76376285000000000e-03
  15 -4.34726563000000010e-01
  16 -5.07942249999999984e-02
  17 -5.54298763999999999e-01
  18 5.38963785000000015e-02
  19 1.89942132000000014e-01
  20 -5.47668197999999995e-01
  21 -1.21018624000000005e-01
  22 1.09601588999999999e-01
  23 -6.50615186000000068e-02
  24 -4.99996207000000026e-01
 Ene= 3.99092579999999986e+00
 Sym= 1a
 Spin= Alpha
 Occup= 0.00000000000000000e+00
   1 -4.64668437999999975e-02
   2 -5.85598623000000013e-02
   3 1.68794954999999991e+00
   4 3.19726102000000012e-01
   5 -1.32604369000000003e-02
   6 4.19740056000000028e-02
   7 7.15715254999999995e-01
   8 -6.15818945999999992e-02
   9 -1.77173590999999991e-01
  10 8.60823336999999994e-02
  11 -9.45736860999999984e-01
  12 1.66026834000000012e-01
  13 7.73590611000000039e-01
  14 -2.01090755000000010e-01
  15 -5.10514494000000041e-01
  16 -1.20294249000000002e-02
  17 1.84171637999999999e-01
  18 2.63952260999999987e-02
  19 3.13464098000000024e-01
  20 -1.34595138999999997e+00
  21 -2.77023406000000028e-01
  22 9.43585782999999956e-01
  23 -9.55090668999999948e-02
  24 -3.55307778999999990e-01
 Ene= 4.17018287999999959e+00
 Sym= 1a
 Spin= Alpha
 Occup= 0.00000000000000000e+00
   1 1.58311388999999997e-02
   2 -2.19875616999999995e-01
   3 -1.53836643999999989e+00
   4 2.91049461000000009e-02
   5 -7.99015624000000008e-02
   6 -6.65081922000000048e-01
   7 1.84880747000000012e-01
   8 -1.55662383999999987e-01
   9 -1.23368250999999995e+00
  10 -1.25829962000000006e+00
  11 -1.07511906000000004e-01
  12 -2.38253478999999990e-01
  13 1.28829797999999995e-01
  14 -2.58023980999999986e-02
  15 2.16527304000000020e+00
  16 3.79676795000000011e-01
  17 -2.60873369000000008e-03
  18 -1.42660179999999998e-01
  19 -1.21387366999999990e+00
  20 -2.14430339999999997e-01
  21 -1.54375263000000013e-01
  22 1.43153776000000010e-01
  23 -1.76712847999999992e-02
  24 -8.09462288000000058e-02
