[Molden Format]
made by pyscf v[2.12.1]
[Atoms] (AU)
C   1   6     0.00000000000000     2.63805766989283     0.00000000000000
C   2   6     2.28467888459916     1.31902883494641     0.00000000000000
C   3   6     2.28467888459916    -1.31902883494641     0.00000000000000
C   4   6     0.00000000000000    -2.63805766989283     0.00000000000000
C   5   6    -2.28467888459916    -1.31902883494641     0.00000000000000
C   6   6    -2.28467888459916     1.31902883494641     0.00000000000000
H   7   1     0.00000000000000     4.68463106279679     0.00000000000000
H   8   1     4.05724198944119     2.34326039446068     0.00000000000000
H   9   1     4.05724198944119    -2.34326039446068     0.00000000000000
H   10   1     0.00000000000000    -4.68463106279679     0.00000000000000
H   11   1    -4.05724198944119    -2.34326039446068     0.00000000000000
H   12   1    -4.05724198944119     2.34326039446068     0.00000000000000
[GTO]
1 0
 s    8 1.00
                  6665  0.00069158396281299
                  1000  0.0053257961529341
                   228   0.027060721042034
                 64.71    0.10165684614077
                 21.06     0.2745748236174
                 7.495    0.44829431892377
                 2.797    0.28490261071525
                0.5215   0.015194859206082
 s    8 1.00
                  6665  -0.00029326965268655
                  1000  -0.0023180354739745
                   228  -0.011499786038565
                 64.71  -0.046826727009787
                 21.06   -0.12846616875047
                 7.495   -0.30126627246289
                 2.797   -0.25563070233011
                0.5215      1.093793361012
 s    1 1.00
                0.1596                   1
 p    3 1.00
                 9.439   0.056979251590039
                 2.002    0.31320721150073
                0.5456    0.76037674173753
 p    1 1.00
                0.1517                   1
 d    1 1.00
                  0.55                   1

2 0
 s    8 1.00
                  6665  0.00069158396281299
                  1000  0.0053257961529341
                   228   0.027060721042034
                 64.71    0.10165684614077
                 21.06     0.2745748236174
                 7.495    0.44829431892377
                 2.797    0.28490261071525
                0.5215   0.015194859206082
 s    8 1.00
                  6665  -0.00029326965268655
                  1000  -0.0023180354739745
                   228  -0.011499786038565
                 64.71  -0.046826727009787
                 21.06   -0.12846616875047
                 7.495   -0.30126627246289
                 2.797   -0.25563070233011
                0.5215      1.093793361012
 s    1 1.00
                0.1596                   1
 p    3 1.00
                 9.439   0.056979251590039
                 2.002    0.31320721150073
                0.5456    0.76037674173753
 p    1 1.00
                0.1517                   1
 d    1 1.00
                  0.55                   1

3 0
 s    8 1.00
                  6665  0.00069158396281299
                  1000  0.0053257961529341
                   228   0.027060721042034
                 64.71    0.10165684614077
                 21.06     0.2745748236174
                 7.495    0.44829431892377
                 2.797    0.28490261071525
                0.5215   0.015194859206082
 s    8 1.00
                  6665  -0.00029326965268655
                  1000  -0.0023180354739745
                   228  -0.011499786038565
                 64.71  -0.046826727009787
                 21.06   -0.12846616875047
                 7.495   -0.30126627246289
                 2.797   -0.25563070233011
                0.5215      1.093793361012
 s    1 1.00
                0.1596                   1
 p    3 1.00
                 9.439   0.056979251590039
                 2.002    0.31320721150073
                0.5456    0.76037674173753
 p    1 1.00
                0.1517                   1
 d    1 1.00
                  0.55                   1

4 0
 s    8 1.00
                  6665  0.00069158396281299
                  1000  0.0053257961529341
                   228   0.027060721042034
                 64.71    0.10165684614077
                 21.06     0.2745748236174
                 7.495    0.44829431892377
                 2.797    0.28490261071525
                0.5215   0.015194859206082
 s    8 1.00
                  6665  -0.00029326965268655
                  1000  -0.0023180354739745
                   228  -0.011499786038565
                 64.71  -0.046826727009787
                 21.06   -0.12846616875047
                 7.495   -0.30126627246289
                 2.797   -0.25563070233011
                0.5215      1.093793361012
 s    1 1.00
                0.1596                   1
 p    3 1.00
                 9.439   0.056979251590039
                 2.002    0.31320721150073
                0.5456    0.76037674173753
 p    1 1.00
                0.1517                   1
 d    1 1.00
                  0.55                   1

5 0
 s    8 1.00
                  6665  0.00069158396281299
                  1000  0.0053257961529341
                   228   0.027060721042034
                 64.71    0.10165684614077
                 21.06     0.2745748236174
                 7.495    0.44829431892377
                 2.797    0.28490261071525
                0.5215   0.015194859206082
 s    8 1.00
                  6665  -0.00029326965268655
                  1000  -0.0023180354739745
                   228  -0.011499786038565
                 64.71  -0.046826727009787
                 21.06   -0.12846616875047
                 7.495   -0.30126627246289
                 2.797   -0.25563070233011
                0.5215      1.093793361012
 s    1 1.00
                0.1596                   1
 p    3 1.00
                 9.439   0.056979251590039
                 2.002    0.31320721150073
                0.5456    0.76037674173753
 p    1 1.00
                0.1517                   1
 d    1 1.00
                  0.55                   1

6 0
 s    8 1.00
                  6665  0.00069158396281299
                  1000  0.0053257961529341
                   228   0.027060721042034
                 64.71    0.10165684614077
                 21.06     0.2745748236174
                 7.495    0.44829431892377
                 2.797    0.28490261071525
                0.5215   0.015194859206082
 s    8 1.00
                  6665  -0.00029326965268655
                  1000  -0.0023180354739745
                   228  -0.011499786038565
                 64.71  -0.046826727009787
                 21.06   -0.12846616875047
                 7.495   -0.30126627246289
                 2.797   -0.25563070233011
                0.5215      1.093793361012
 s    1 1.00
                0.1596                   1
 p    3 1.00
                 9.439   0.056979251590039
                 2.002    0.31320721150073
                0.5456    0.76037674173753
 p    1 1.00
                0.1517                   1
 d    1 1.00
                  0.55                   1

7 0
 s    3 1.00
                 13.01   0.033498726389998
                 1.962    0.23480080117413
                0.4446     0.8136829578829
 s    1 1.00
                 0.122                   1
 p    1 1.00
                 0.727                   1

8 0
 s    3 1.00
                 13.01   0.033498726389998
                 1.962    0.23480080117413
                0.4446     0.8136829578829
 s    1 1.00
                 0.122                   1
 p    1 1.00
                 0.727                   1

9 0
 s    3 1.00
                 13.01   0.033498726389998
                 1.962    0.23480080117413
                0.4446     0.8136829578829
 s    1 1.00
                 0.122                   1
 p    1 1.00
                 0.727                   1

10 0
 s    3 1.00
                 13.01   0.033498726389998
                 1.962    0.23480080117413
                0.4446     0.8136829578829
 s    1 1.00
                 0.122                   1
 p    1 1.00
                 0.727                   1

11 0
 s    3 1.00
                 13.01   0.033498726389998
                 1.962    0.23480080117413
                0.4446     0.8136829578829
 s    1 1.00
                 0.122                   1
 p    1 1.00
                 0.727                   1

12 0
 s    3 1.00
                 13.01   0.033498726389998
                 1.962    0.23480080117413
                0.4446     0.8136829578829
 s    1 1.00
                 0.122                   1
 p    1 1.00
                 0.727                   1

[5d]
[7f]
[9g]

[MO]
 Sym= Ag
 Ene=    -11.23937377
 Spin= Alpha
 Occup=    2.00000
   1      0.40254768894678
   2    0.0014095590640723
   3    -0.0017845219539136
   4    -5.5423824651147e-21
   5    9.0513974624741e-05
   6                     0
   7    1.5533176535675e-20
   8    -0.00025367602391955
   9                     0
  10    -5.7360868122813e-05
  11                     0
  12                     0
  13    -8.9267322996227e-05
  14    -1.0932094137578e-20
  15      0.41190537402715
  16    0.0014531603658239
  17    -0.0018930710931169
  18    7.8605486422216e-05
  19    4.6079749177355e-05
  20                     0
  21    -0.00019260691469877
  22    -0.00011940633721482
  23                     0
  24    -6.5337096251414e-05
  25                     0
  26                     0
  27    4.5852189341163e-05
  28    7.7281099562955e-05
  29      0.41190537402715
  30    0.0014531603658239
  31    -0.0018930710931169
  32    7.8605486422216e-05
  33    -4.6079749177355e-05
  34                     0
  35    -0.00019260691469877
  36    0.00011940633721482
  37                     0
  38    -6.5337096251414e-05
  39                     0
  40                     0
  41    4.5852189341163e-05
  42    -7.7281099562955e-05
  43      0.40254768894678
  44    0.0014095590640723
  45    -0.0017845219539136
  46    5.5423824651147e-21
  47    -9.0513974624741e-05
  48                     0
  49    -1.5533176535675e-20
  50    0.00025367602391955
  51                     0
  52    -5.7360868122813e-05
  53                     0
  54                     0
  55    -8.9267322996227e-05
  56    -1.0932094137578e-20
  57      0.41190537402715
  58    0.0014531603658239
  59    -0.0018930710931169
  60    -7.8605486422216e-05
  61    -4.6079749177355e-05
  62                     0
  63    0.00019260691469877
  64    0.00011940633721482
  65                     0
  66    -6.5337096251414e-05
  67                     0
  68                     0
  69    4.5852189341163e-05
  70    7.7281099562955e-05
  71      0.41190537402715
  72    0.0014531603658239
  73    -0.0018930710931169
  74    -7.8605486422216e-05
  75    4.6079749177355e-05
  76                     0
  77    0.00019260691469877
  78    -0.00011940633721482
  79                     0
  80    -6.5337096251414e-05
  81                     0
  82                     0
  83    4.5852189341163e-05
  84    -7.7281099562955e-05
  85    -0.00013493611947046
  86    0.00069730928762051
  87    -8.0302778850942e-21
  88    0.00013114439021415
  89                     0
  90    -0.00014056996428118
  91     0.000700253405105
  92    0.00011902010645476
  93    6.8869842427222e-05
  94                     0
  95    -0.00014056996428118
  96     0.000700253405105
  97    0.00011902010645476
  98    -6.8869842427222e-05
  99                     0
 100    -0.00013493611947046
 101    0.00069730928762051
 102    8.0302778850942e-21
 103    -0.00013114439021415
 104                     0
 105    -0.00014056996428118
 106     0.000700253405105
 107    -0.00011902010645476
 108    -6.8869842427222e-05
 109                     0
 110    -0.00014056996428118
 111     0.000700253405105
 112    -0.00011902010645476
 113    6.8869842427222e-05
 114                     0
 Sym= B2u
 Ene=    -11.23883658
 Spin= Alpha
 Occup=    2.00000
   1                     0
   2                     0
   3                     0
   4    -4.4966315269346e-05
   5    -2.7533927032027e-21
   6                     0
   7    0.0015178216849351
   8    9.293977340661e-20
   9                     0
  10                     0
  11                     0
  12                     0
  13    -1.6802614181608e-21
  14    1.3720375697962e-05
  15      0.50096536773564
  16    0.0021376180653176
  17    -0.0040147813715063
  18    2.8133257908832e-05
  19    4.2323232740316e-05
  20                     0
  21    0.00065640009818621
  22    -0.00049747401290928
  23                     0
  24    -6.4061821109309e-05
  25                     0
  26                     0
  27    3.741359395767e-05
  28    5.1381968197584e-05
  29      0.50096536773564
  30    0.0021376180653176
  31    -0.0040147813715063
  32    2.8133257908832e-05
  33    -4.2323232740316e-05
  34                     0
  35    0.00065640009818621
  36    0.00049747401290928
  37                     0
  38    -6.4061821109309e-05
  39                     0
  40                     0
  41    3.741359395767e-05
  42    -5.1381968197584e-05
  43                     0
  44                     0
  45                     0
  46    -4.4966315269346e-05
  47    -2.7533927032027e-21
  48                     0
  49    0.0015178216849351
  50    9.293977340661e-20
  51                     0
  52                     0
  53                     0
  54                     0
  55    1.6802614181608e-21
  56    -1.3720375697962e-05
  57     -0.50096536773564
  58    -0.0021376180653176
  59    0.0040147813715063
  60    2.8133257908832e-05
  61    4.2323232740316e-05
  62                     0
  63    0.00065640009818621
  64    -0.00049747401290928
  65                     0
  66    6.4061821109309e-05
  67                     0
  68                     0
  69    -3.741359395767e-05
  70    -5.1381968197584e-05
  71     -0.50096536773564
  72    -0.0021376180653176
  73    0.0040147813715063
  74    2.8133257908832e-05
  75    -4.2323232740316e-05
  76                     0
  77    0.00065640009818621
  78    0.00049747401290928
  79                     0
  80    6.4061821109309e-05
  81                     0
  82                     0
  83    -3.741359395767e-05
  84    5.1381968197584e-05
  85                     0
  86                     0
  87    -7.0728475186181e-06
  88    -4.3308700372665e-22
  89                     0
  90    -0.00014459596769548
  91    0.00053693664695725
  92    0.00017842509372593
  93    0.00010710116661746
  94                     0
  95    -0.00014459596769548
  96    0.00053693664695725
  97    0.00017842509372593
  98    -0.00010710116661746
  99                     0
 100                     0
 101                     0
 102    -7.0728475186181e-06
 103    -4.3308700372665e-22
 104                     0
 105    0.00014459596769548
 106    -0.00053693664695725
 107    0.00017842509372593
 108    0.00010710116661746
 109                     0
 110    0.00014459596769548
 111    -0.00053693664695725
 112    0.00017842509372593
 113    -0.00010710116661746
 114                     0
 Sym= B3u
 Ene=    -11.23881006
 Spin= Alpha
 Occup=    2.00000
   1      0.57402974379936
   2    0.0024459488755095
   3    -0.0045488156443724
   4    -3.2215562698288e-21
   5    5.2612006532362e-05
   6                     0
   7    -2.0622530884773e-20
   8    0.0003367914879479
   9                     0
  10    -6.8242503497711e-05
  11                     0
  12                     0
  13    -7.2221424020743e-05
  14    -8.8445735756867e-21
  15      0.29361805493009
  16    0.0012574089258735
  17    -0.0024051325106813
  18    4.230220741989e-05
  19    -2.0743059760329e-05
  20                     0
  21    -0.00046982430819871
  22    0.0012463447330392
  23                     0
  24    -4.286612875707e-05
  25                     0
  26                     0
  27    8.0325372867829e-06
  28    3.8697763548801e-05
  29     -0.29361805493009
  30    -0.0012574089258735
  31    0.0024051325106813
  32    -4.230220741989e-05
  33    -2.0743059760329e-05
  34                     0
  35    0.00046982430819871
  36    0.0012463447330392
  37                     0
  38    4.286612875707e-05
  39                     0
  40                     0
  41    -8.0325372867829e-06
  42    3.8697763548801e-05
  43     -0.57402974379936
  44    -0.0024459488755095
  45    0.0045488156443724
  46    -3.2215562698288e-21
  47    5.2612006532362e-05
  48                     0
  49    -2.0622530884773e-20
  50    0.0003367914879479
  51                     0
  52    6.8242503497711e-05
  53                     0
  54                     0
  55    7.2221424020743e-05
  56    8.8445735756867e-21
  57     -0.29361805493009
  58    -0.0012574089258735
  59    0.0024051325106813
  60    4.230220741989e-05
  61    -2.0743059760329e-05
  62                     0
  63    -0.00046982430819871
  64    0.0012463447330392
  65                     0
  66    4.286612875707e-05
  67                     0
  68                     0
  69    -8.0325372867829e-06
  70    -3.8697763548801e-05
  71      0.29361805493009
  72    0.0012574089258735
  73    -0.0024051325106813
  74    -4.230220741989e-05
  75    -2.0743059760329e-05
  76                     0
  77    0.00046982430819871
  78    0.0012463447330392
  79                     0
  80    -4.286612875707e-05
  81                     0
  82                     0
  83    8.0325372867829e-06
  84    -3.8697763548801e-05
  85    -0.00016310771297529
  86    0.00062335929435037
  87    -1.44918469185e-20
  88    0.00023666982069589
  89                     0
  90    -8.7572749682678e-05
  91    0.00030727588561305
  92    0.00011015591385282
  93    5.6357961634498e-05
  94                     0
  95    8.7572749682678e-05
  96    -0.00030727588561305
  97    -0.00011015591385282
  98    5.6357961634498e-05
  99                     0
 100    0.00016310771297529
 101    -0.00062335929435037
 102    -1.44918469185e-20
 103    0.00023666982069589
 104                     0
 105    8.7572749682678e-05
 106    -0.00030727588561305
 107    0.00011015591385282
 108    5.6357961634498e-05
 109                     0
 110    -8.7572749682678e-05
 111    0.00030727588561305
 112    -0.00011015591385282
 113    5.6357961634498e-05
 114                     0
 Sym= B1g
 Ene=    -11.23764947
 Spin= Alpha
 Occup=    2.00000
   1                     0
   2                     0
   3                     0
   4    -6.3500048214228e-05
   5    -3.8882565395628e-21
   6                     0
   7    0.00070825708775241
   8    4.3368238774471e-20
   9                     0
  10                     0
  11                     0
  12                     0
  13    -1.713530882441e-20
  14    0.00013992041490118
  15      0.50121878349002
  16    0.0023563131719254
  17    -0.0056750955641839
  18    5.1034979341839e-05
  19    -7.5249277375471e-06
  20                     0
  21    0.0009662172807146
  22     0.000968415539934
  23                     0
  24    -0.00044228284253228
  25                     0
  26                     0
  27    -3.6456878085673e-05
  28    7.8304799489182e-05
  29     -0.50121878349002
  30    -0.0023563131719254
  31    0.0056750955641839
  32    -5.1034979341839e-05
  33    -7.5249277375471e-06
  34                     0
  35    -0.0009662172807146
  36     0.000968415539934
  37                     0
  38    0.00044228284253228
  39                     0
  40                     0
  41    3.6456878085673e-05
  42    7.8304799489182e-05
  43                     0
  44                     0
  45                     0
  46    6.3500048214228e-05
  47    3.8882565395628e-21
  48                     0
  49    -0.00070825708775241
  50    -4.3368238774471e-20
  51                     0
  52                     0
  53                     0
  54                     0
  55    -1.713530882441e-20
  56    0.00013992041490118
  57      0.50121878349002
  58    0.0023563131719254
  59    -0.0056750955641839
  60    -5.1034979341839e-05
  61    7.5249277375471e-06
  62                     0
  63    -0.0009662172807146
  64    -0.000968415539934
  65                     0
  66    -0.00044228284253228
  67                     0
  68                     0
  69    -3.6456878085673e-05
  70    7.8304799489182e-05
  71     -0.50121878349002
  72    -0.0023563131719254
  73    0.0056750955641839
  74    5.1034979341839e-05
  75    7.5249277375471e-06
  76                     0
  77    0.0009662172807146
  78    -0.000968415539934
  79                     0
  80    0.00044228284253228
  81                     0
  82                     0
  83    3.6456878085673e-05
  84    7.8304799489182e-05
  85                     0
  86                     0
  87    -1.0762590492729e-05
  88    -6.5901859987272e-22
  89                     0
  90    -0.00031104044811761
  91    0.00022597276880025
  92    0.00029955171618112
  93    0.00016650156410532
  94                     0
  95    0.00031104044811761
  96    -0.00022597276880025
  97    -0.00029955171618112
  98    0.00016650156410532
  99                     0
 100                     0
 101                     0
 102    1.0762590492729e-05
 103    6.5901859987272e-22
 104                     0
 105    -0.00031104044811761
 106    0.00022597276880025
 107    -0.00029955171618112
 108    -0.00016650156410532
 109                     0
 110    0.00031104044811761
 111    -0.00022597276880025
 112    0.00029955171618112
 113    -0.00016650156410532
 114                     0
 Sym= Ag
 Ene=    -11.23762265
 Spin= Alpha
 Occup=    2.00000
   1      0.58313082889206
   2    0.0027368499009389
   3    -0.0065726844012855
   4    -2.9570353440327e-21
   5    4.8292051979257e-05
   6                     0
   7    -9.3206966049647e-20
   8    0.0015221852719419
   9                     0
  10    -0.00051145868765025
  11                     0
  12                     0
  13    -5.8278122958423e-05
  14    -7.1370116741349e-21
  15     -0.28495529286585
  16    -0.0013447347340669
  17    0.0032561399177175
  18    8.1851849258272e-06
  19    -5.9095996646922e-05
  20                     0
  21    -0.0009694659214025
  22    0.00014927461843377
  23                     0
  24    0.00025466658423051
  25                     0
  26                     0
  27    -0.00011884028881642
  28    3.6785971872441e-05
  29     -0.28495529286585
  30    -0.0013447347340669
  31    0.0032561399177175
  32    8.1851849258272e-06
  33    5.9095996646922e-05
  34                     0
  35    -0.0009694659214025
  36    -0.00014927461843377
  37                     0
  38    0.00025466658423051
  39                     0
  40                     0
  41    -0.00011884028881642
  42    -3.6785971872441e-05
  43      0.58313082889206
  44    0.0027368499009389
  45    -0.0065726844012855
  46    2.9570353440327e-21
  47    -4.8292051979257e-05
  48                     0
  49    9.3206966049647e-20
  50    -0.0015221852719419
  51                     0
  52    -0.00051145868765025
  53                     0
  54                     0
  55    -5.8278122958423e-05
  56    -7.1370116741349e-21
  57     -0.28495529286585
  58    -0.0013447347340669
  59    0.0032561399177175
  60    -8.1851849258272e-06
  61    5.9095996646922e-05
  62                     0
  63    0.0009694659214025
  64    -0.00014927461843377
  65                     0
  66    0.00025466658423051
  67                     0
  68                     0
  69    -0.00011884028881642
  70    3.6785971872441e-05
  71     -0.28495529286585
  72    -0.0013447347340669
  73    0.0032561399177175
  74    -8.1851849258272e-06
  75    -5.9095996646922e-05
  76                     0
  77    0.0009694659214025
  78    0.00014927461843377
  79                     0
  80    0.00025466658423051
  81                     0
  82                     0
  83    -0.00011884028881642
  84    -3.6785971872441e-05
  85    -0.00036101840979665
  86    0.0002690772116126
  87    -2.4312043302639e-20
  88    0.00039704579834065
  89                     0
  90    0.00017799276466636
  91    -0.00012309829104841
  92    -0.00016533002340909
  93    -0.00010633046246019
  94                     0
  95    0.00017799276466636
  96    -0.00012309829104841
  97    -0.00016533002340909
  98    0.00010633046246019
  99                     0
 100    -0.00036101840979665
 101    0.0002690772116126
 102    2.4312043302639e-20
 103    -0.00039704579834065
 104                     0
 105    0.00017799276466636
 106    -0.00012309829104841
 107    0.00016533002340909
 108    0.00010633046246019
 109                     0
 110    0.00017799276466636
 111    -0.00012309829104841
 112    0.00016533002340909
 113    -0.00010633046246019
 114                     0
 Sym= B3u
 Ene=    -11.23705811
 Spin= Alpha
 Occup=    2.00000
   1     -0.41560596163353
   2    -0.0021649129450588
   3      0.00779333283637
   4    7.7856862163815e-22
   5    -1.271499051286e-05
   6                     0
   7    1.6676279031132e-19
   8    -0.0027234430437809
   9                     0
  10    0.00055978669289379
  11                     0
  12                     0
  13    0.00010377670187919
  14    1.2708980578242e-20
  15      0.40627622834015
  16    0.0021248615826108
  17    -0.0077198361651842
  18    9.6012628076293e-06
  19    5.9536107362118e-06
  20                     0
  21    0.0023599887448583
  22    0.0013471099926646
  23                     0
  24    -0.00055855888778381
  25                     0
  26                     0
  27    5.0991567508743e-05
  28    8.8981471700075e-05
  29     -0.40627622834015
  30    -0.0021248615826108
  31    0.0077198361651842
  32    -9.6012628076293e-06
  33    5.9536107362118e-06
  34                     0
  35    -0.0023599887448583
  36    0.0013471099926646
  37                     0
  38    0.00055855888778381
  39                     0
  40                     0
  41    -5.0991567508743e-05
  42    8.8981471700075e-05
  43      0.41560596163353
  44    0.0021649129450588
  45     -0.00779333283637
  46    7.7856862163815e-22
  47    -1.271499051286e-05
  48                     0
  49    1.6676279031132e-19
  50    -0.0027234430437809
  51                     0
  52    -0.00055978669289379
  53                     0
  54                     0
  55    -0.00010377670187919
  56    -1.2708980578242e-20
  57     -0.40627622834015
  58    -0.0021248615826108
  59    0.0077198361651842
  60    9.6012628076293e-06
  61    5.9536107362118e-06
  62                     0
  63    0.0023599887448583
  64    0.0013471099926646
  65                     0
  66    0.00055855888778381
  67                     0
  68                     0
  69    -5.0991567508743e-05
  70    -8.8981471700075e-05
  71      0.40627622834015
  72    0.0021248615826108
  73    -0.0077198361651842
  74    -9.6012628076293e-06
  75    5.9536107362118e-06
  76                     0
  77    -0.0023599887448583
  78    0.0013471099926646
  79                     0
  80    -0.00055855888778381
  81                     0
  82                     0
  83    5.0991567508743e-05
  84    -8.8981471700075e-05
  85    0.00038301717829826
  86    0.00017694130691724
  87    2.0610609824569e-20
  88    -0.00033659680226036
  89                     0
  90    -0.00037986342431738
  91    -0.00018689137964878
  92    0.00028818887323609
  93    0.00016640825704422
  94                     0
  95    0.00037986342431738
  96    0.00018689137964878
  97    -0.00028818887323609
  98    0.00016640825704422
  99                     0
 100    -0.00038301717829826
 101    -0.00017694130691724
 102    2.0610609824569e-20
 103    -0.00033659680226036
 104                     0
 105    0.00037986342431738
 106    0.00018689137964878
 107    0.00028818887323609
 108    0.00016640825704422
 109                     0
 110    -0.00037986342431738
 111    -0.00018689137964878
 112    -0.00028818887323609
 113    0.00016640825704422
 114                     0
 Sym= Ag
 Ene=    -1.147366782
 Spin= Alpha
 Occup=    2.00000
   1    -0.011782042621013
   2      0.17989203880248
   3     0.099907769687689
   4    3.9533485099889e-18
   5    -0.064563080763228
   6                     0
   7    7.3842249152548e-19
   8    -0.012059354452885
   9                     0
  10    -0.0090231674535819
  11                     0
  12                     0
  13    0.0056684622677143
  14    6.9418641722439e-19
  15    -0.011775819853333
  16      0.17988303240015
  17     0.099903816795882
  18    -0.055931435102221
  19    -0.032284712800704
  20                     0
  21    -0.010430325115933
  22    -0.0060188610989029
  23                     0
  24    -0.0090239216823398
  25                     0
  26                     0
  27    -0.0028346175171349
  28    -0.0049108783772728
  29    -0.011775819853333
  30      0.17988303240015
  31     0.099903816795882
  32    -0.055931435102221
  33     0.032284712800704
  34                     0
  35    -0.010430325115933
  36    0.0060188610989029
  37                     0
  38    -0.0090239216823398
  39                     0
  40                     0
  41    -0.0028346175171349
  42    0.0049108783772728
  43    -0.011782042621013
  44      0.17989203880248
  45     0.099907769687689
  46    -3.9533485099889e-18
  47     0.064563080763228
  48                     0
  49    -7.3842249152548e-19
  50     0.012059354452885
  51                     0
  52    -0.0090231674535819
  53                     0
  54                     0
  55    0.0056684622677143
  56    6.9418641722439e-19
  57    -0.011775819853333
  58      0.17988303240015
  59     0.099903816795882
  60     0.055931435102221
  61     0.032284712800704
  62                     0
  63     0.010430325115933
  64    0.0060188610989029
  65                     0
  66    -0.0090239216823398
  67                     0